# LAMMPS data file written by OVITO Pro 3.7.4
492 atoms
369 bonds
246 angles
123 dihedrals
1 atom types
1 bond types
1 angle types
1 dihedral types
0.0 30.0 xlo xhi
0.0 30.0 ylo yhi
0.0 25.0 zlo zhi

Atoms  # full

1 31 1 0.0 2.2700480332 1.3178961734 3.2119230725 2 0 0
2 10 1 0.0 4.6513313915 1.6062480168 5.4540501817 1 0 0
3 31 1 0.0 0.8055138898 1.0375340194 3.165714743 1 0 0
4 62 1 0.0 1.320834774 4.5851098374 2.9946151638 2 -1 0
5 62 1 0.0 4.3705920702 5.3426944292 3.4758523753 2 -1 0
6 60 1 0.0 2.2323038211 3.0960685499 6.2880264444 2 0 0
7 10 1 0.0 5.5067679761 2.2029166988 2.9688660201 1 0 0
8 49 1 0.0 8.4182496522 1.3188553389 5.9262481601 2 -1 0
9 49 1 0.0 8.5365334861 2.239522053 2.9739876359 2 -1 0
10 49 1 0.0 10.5487473268 3.7362760294 3.0229362245 2 -1 0
11 89 1 0.0 7.8281641486 6.2401746255 3.1623903763 1 -1 0
12 79 1 0.0 6.5373224092 3.9949262125 6.3467268996 1 0 0
13 116 1 0.0 11.4599531984 0.4744235604 5.0638116706 1 0 0
14 116 1 0.0 13.3462673952 0.5931488469 2.8416868764 1 -1 0
15 82 1 0.0 14.5585152579 3.4610549697 2.7858738274 2 -1 0
16 82 1 0.0 14.6976997156 5.1856533664 5.0658697688 1 -1 0
17 82 1 0.0 16.343501633 4.3361851441 6.1869175782 1 -1 0
18 117 1 0.0 16.8284176771 1.5328443688 2.9204849148 1 0 0
19 82 1 0.0 15.9758377237 0.2719091297 5.5729953779 1 -1 0
20 116 1 0.0 12.707175183 2.6894171797 5.4533797673 1 -1 0
21 117 1 0.0 20.145438859 0.9268169662 5.055381217 1 0 0
22 32 1 0.0 18.7805646175 3.4870505625 4.1098388678 1 -1 0
23 27 1 0.0 21.9856322498 2.5621024375 2.7831149208 0 0 0
24 27 1 0.0 23.9959722603 0.8963279022 3.0226093504 0 0 0
25 32 1 0.0 20.2185487296 5.0130727134 3.9212956737 1 -1 0
26 27 1 0.0 24.4446600469 4.6265101337 3.1434733451 0 0 0
27 74 1 0.0 27.867601552 3.309426442 2.8870488507 0 1 0
28 74 1 0.0 27.3939224989 5.5084765024 3.0202377105 0 1 0
29 21 1 0.0 27.1607540105 0.23477704 3.2428530157 0 0 0
30 111 1 0.0 24.6524858766 0.0274626016 5.9303241192 0 0 0
31 21 1 0.0 29.4608375778 0.3526192864 6.2879604673 0 0 0
32 74 1 0.0 29.2978368098 3.2890616244 4.9120659579 1 1 0
33 27 1 0.0 26.0528020872 2.7787070664 4.8696777495 0 0 0
34 62 1 0.0 4.5498509936 8.3228058205 4.5648037668 2 -1 0
35 62 1 0.0 0.7878212896 5.3520045442 2.9517513691 2 -1 0
36 88 1 0.0 3.8611474156 12.3902315338 5.2735051724 1 -1 0
37 107 1 0.0 2.2472115724 9.4349684203 3.1500011219 2 -1 0
38 107 1 0.0 1.2703498902 11.6044010321 3.1685924382 2 -1 0
39 89 1 0.0 7.2236705189 9.6670119112 3.2004865134 1 -1 0
40 89 1 0.0 9.3365467897 6.5825737315 3.3774753373 1 -1 0
41 89 1 0.0 8.9582339449 9.1729324701 3.4340887636 1 -1 0
42 25 1 0.0 11.7159308023 8.5787958129 2.9497674499 2 -1 0
43 25 1 0.0 10.2544358947 12.0446281036 3.2704560382 1 0 0
44 41 1 0.0 14.8293331017 7.9093384149 3.1544499682 1 0 0
45 41 1 0.0 17.0165140187 6.1610622715 3.1994270241 0 1 0
46 41 1 0.0 17.3798173049 6.8552769074 3.4850558703 1 0 0
47 41 1 0.0 14.8439298362 8.3962389686 3.4907302145 0 1 0
48 25 1 0.0 14.1213414926 11.6248421342 2.9278716504 2 0 0
49 15 1 0.0 17.8526369922 10.836004838 2.9893244965 0 0 0
50 84 1 0.0 11.8677769723 10.8435986069 5.7982613404 1 -1 0
51 15 1 0.0 17.6716129725 9.9172278295 5.4509015516 1 0 0
52 17 1 0.0 22.0723202822 7.8906813777 3.0516792927 1 -2 0
53 17 1 0.0 21.8420988071 8.1326513538 3.542384281 1 -2 0
54 17 1 0.0 21.744423306 11.7394890276 2.7781297802 1 -2 0
55 17 1 0.0 20.9583883619 11.7021661706 3.3905345684 1 -1 0
56 15 1 0.0 18.7027942548 11.8978753923 6.3265812972 0 0 0
57 42 1 0.0 25.7589059548 8.9333856393 3.368077309 1 0 0
58 107 1 0.0 29.4573812667 8.2864215387 3.2872778357 1 -1 0
59 107 1 0.0 28.660652344 10.0464883603 2.9952229468 1 -1 0
60 74 1 0.0 27.2085963958 5.9771672756 4.8692667016 0 1 0
61 60 1 0.0 0.7035762492 6.5609891698 5.9030826755 2 0 0
62 99 1 0.0 24.1395091029 7.2337105463 5.7151366883 0 -1 0
63 42 1 0.0 23.4171451849 10.292943051 4.9320296924 1 0 0
64 42 1 0.0 28.8302078583 9.6703923953 6.4218262257 1 0 0
65 88 1 0.0 3.9690952232 13.1177521922 3.1873577928 1 0 0
66 88 1 0.0 4.4432286722 16.0835619487 2.9951301635 1 -2 0
67 26 1 0.0 1.6624568459 15.0377418027 3.972363361 1 0 0
68 94 1 0.0 7.0022612671 12.401925759 2.9784382254 1 -1 0
69 94 1 0.0 7.251692817 13.9924469023 3.176835296 1 0 0
70 52 1 0.0 10.8422545787 16.2954316643 5.9827938113 2 -1 0
71 50 1 0.0 9.7178171644 16.0481037663 3.0466371273 2 -1 0
72 50 1 0.0 7.3334880745 17.731955506 3.4284359173 1 -1 0
73 94 1 0.0 8.3691188822 12.610966777 5.5202670371 1 -1 0
74 94 1 0.0 7.5211319724 14.2970798631 5.2557195212 1 0 0
75 25 1 0.0 12.1724846243 14.0093812934 3.0969832567 1 0 0
76 52 1 0.0 13.8066053758 16.8971276455 3.0050807092 1 -1 0
77 52 1 0.0 15.9779674445 14.9376348914 3.3412486031 1 -1 0
78 52 1 0.0 15.1446291488 12.1322370857 5.9242360759 2 -1 0
79 120 1 0.0 18.2666521197 16.9736239103 3.046233834 2 -1 0
80 11 1 0.0 13.6671965891 15.0490077209 5.9581522823 0 0 0
81 92 1 0.0 23.5322433262 13.9733426812 3.3466545459 0 -1 0
82 15 1 0.0 18.5754242255 13.5840503292 3.668101365 0 0 0
83 92 1 0.0 24.2761913729 16.4644952821 3.2821675615 0 0 0
84 92 1 0.0 21.7446952404 17.7538671993 3.0892997233 0 0 0
85 92 1 0.0 21.4101287422 14.357722546 5.1915024832 0 -1 0
86 95 1 0.0 26.5525001183 12.1675312578 2.9571044106 1 -1 0
87 95 1 0.0 27.2671190182 14.8563191246 2.8581443767 1 -1 0
88 95 1 0.0 28.8373970434 15.0358661164 3.0341959606 1 -1 0
89 58 1 0.0 28.5092609162 17.802620238 5.9338845992 1 0 0
90 30 1 0.0 25.4962143437 14.1487722479 5.3976471455 0 -1 0
91 95 1 0.0 0.109408101 12.8190097157 5.3305876973 2 -1 0
92 110 1 0.0 2.7210943887 18.529997674 3.4323982123 2 0 0
93 110 1 0.0 1.2270771706 20.9770186008 3.1346549656 2 -1 0
94 110 1 0.0 4.8476660712 18.3280227175 5.3426503815 2 0 0
95 54 1 0.0 4.4438533284 21.9007655073 3.4244925126 2 0 0
96 54 1 0.0 4.8095966512 22.4622876685 3.2793804819 2 0 0
97 110 1 0.0 1.3151317116 23.59468411 7.0424277218 2 -1 0
98 46 1 0.0 2.0422473169 20.6198289476 5.8797995081 1 -1 0
99 50 1 0.0 10.9916287939 18.9235441896 3.1137112582 2 -1 0
100 50 1 0.0 7.6986505917 19.6234304698 3.1405627606 1 0 0
101 64 1 0.0 10.7621050969 22.5663944643 3.517032326 2 -1 0
102 6 1 0.0 7.8753252041 22.6764526987 3.7520058139 1 -2 0
103 98 1 0.0 14.3438138481 19.3340314115 4.3473688032 1 -2 0
104 64 1 0.0 12.5411109413 21.4571339298 3.2897072009 1 -1 0
105 98 1 0.0 15.907558963 19.5822685053 3.5379603347 1 -2 0
106 98 1 0.0 16.3217990999 20.9947490313 2.9415645483 1 -2 0
107 64 1 0.0 12.7806167647 24.3127166134 6.3247581058 1 -2 0
108 39 1 0.0 14.9517032544 21.8396024187 6.0034440298 1 0 0
109 120 1 0.0 20.4754622237 20.2786242716 2.9651283662 2 -1 0
110 120 1 0.0 20.1141326732 22.5152902835 5.0194597397 2 -1 0
111 9 1 0.0 23.043452917 22.7538401078 2.742917829 0 -1 0
112 9 1 0.0 24.0316301206 22.1399766871 3.6369666332 0 -1 0
113 9 1 0.0 21.900119241 20.2344180316 5.5721574308 0 -1 0
114 39 1 0.0 18.6524799207 18.3076379531 5.6542686762 1 0 0
115 26 1 0.0 29.3933312561 18.2108168676 3.2460523133 1 0 0
116 30 1 0.0 26.5710142305 18.5754893906 2.8811806407 0 -1 0
117 30 1 0.0 25.7239510368 19.0399150934 6.2573945926 0 -1 0
118 8 1 0.0 27.0390650273 21.2310691216 3.1917878053 1 -1 0
119 65 1 0.0 29.0889583381 23.7389022387 3.5810555616 1 -1 0
120 8 1 0.0 27.3207950811 23.1536777754 6.2342354322 1 -1 0
121 26 1 0.0 29.1118640622 20.3883840057 5.2418298067 1 0 0
122 6 1 0.0 5.2393317308 25.983013335 3.2401057065 1 -2 0
123 31 1 0.0 3.3773406813 29.2363974209 3.5528041095 1 -2 0
124 54 1 0.0 2.6226546618 24.0841431941 2.9363965236 2 -1 0
125 54 1 0.0 2.4062172483 24.0135738092 3.4031196276 2 -1 0
126 68 1 0.0 2.2599149131 26.9561545677 5.0062139565 1 -1 0
127 10 1 0.0 5.7678704265 28.8649116891 5.6958239312 1 -1 0
128 31 1 0.0 0.7619103212 29.5400100059 3.4155410234 1 -2 0
129 6 1 0.0 9.4587715243 29.2243470961 3.4035042721 1 -2 0
130 6 1 0.0 7.4368095674 29.3454064245 2.5954490469 1 -2 0
131 116 1 0.0 12.2341570118 29.4446640397 2.9050610745 1 -1 0
132 40 1 0.0 7.170307538 25.1989382865 5.6408424867 1 -1 0
133 64 1 0.0 10.8153363258 24.0066529678 5.969698381 2 -2 0
134 40 1 0.0 11.298876307 25.7573075708 3.0283572731 1 -1 0
135 40 1 0.0 8.4514500351 25.9296607257 3.3363168463 0 -1 0
136 10 1 0.0 8.8758213757 27.979019828 6.144704141 1 -1 0
137 108 1 0.0 16.8862650288 28.0704309116 3.6372807698 1 -1 0
138 98 1 0.0 14.2242377921 24.2032650996 3.1275596291 1 -1 0
139 44 1 0.0 17.7115238253 26.4760239171 6.4041637499 1 0 0
140 44 1 0.0 16.0367338254 25.1203658094 5.7780459268 1 0 0
141 108 1 0.0 15.6449479788 27.2869647579 3.1460323444 1 -1 0
142 108 1 0.0 13.4138130449 27.028128939 5.3353921296 1 -1 0
143 44 1 0.0 17.3183276584 23.7837867943 3.0791903122 1 1 0
144 7 1 0.0 23.5997456013 27.7266812239 2.8455549142 1 -1 0
145 9 1 0.0 21.734209433 24.5303604376 3.2932017373 -1 -1 0
146 44 1 0.0 18.6373636808 25.1239270703 3.120170324 1 0 0
147 7 1 0.0 19.9938776881 28.189696041 3.6028920068 1 -1 0
148 7 1 0.0 23.3674411994 27.7732759936 3.2914362852 1 -1 0
149 7 1 0.0 19.58108959 28.8510065159 2.8013896102 1 -1 0
150 8 1 0.0 28.5528651574 26.3909965978 5.5860100527 0 -1 0
151 65 1 0.0 26.5694110599 24.4179498085 3.0144024234 1 -1 0
152 8 1 0.0 29.7038409942 26.7923503718 3.1748245212 0 -1 0
153 21 1 0.0 26.6205093573 27.2952614521 2.9871146086 0 -1 0
154 68 1 0.0 2.2416850677 29.2364601572 6.3602475529 1 -1 0
155 60 1 0.0 4.59547949 2.4372869984 8.4367713698 2 0 0
156 79 1 0.0 0.2163867269 2.5607537066 8.7110145391 1 -1 0
157 28 1 0.0 4.2632027958 1.3100954843 12.0814154961 1 0 0
158 60 1 0.0 4.6829695545 4.5008255854 10.0758590562 2 0 0
159 66 1 0.0 9.4340780577 5.5262991041 6.8186695024 2 -1 0
160 66 1 0.0 10.8883756648 5.4954095649 7.4322436808 2 -1 0
161 66 1 0.0 7.856604125 2.0351516974 9.6115495193 2 -1 0
162 49 1 0.0 11.5273513722 1.6913341164 8.0575617594 2 -1 0
163 66 1 0.0 10.9181997496 4.6013268612 9.6040664728 2 -1 0
164 56 1 0.0 10.3866096847 2.077620157 11.6632552411 1 0 0
165 56 1 0.0 8.2109739803 5.2156697711 11.5033092015 2 0 0
166 45 1 0.0 15.351026906 1.726077649 8.1410561611 1 0 0
167 75 1 0.0 14.587644912 3.2521990571 10.7217017857 2 1 0
168 45 1 0.0 15.9804067559 0.5657091601 10.2746454312 1 0 0
169 32 1 0.0 18.045881201 3.3018554006 9.0874290194 1 -1 0
170 101 1 0.0 13.1902336086 6.1639181676 12.4666777457 1 -1 0
171 101 1 0.0 13.9918022242 4.7423362848 8.0332732116 1 -1 0
172 75 1 0.0 13.152478326 0.7657890353 10.4404379461 2 1 0
173 45 1 0.0 20.121139423 0.7683891293 9.0400148406 1 0 0
174 117 1 0.0 22.4214531867 3.9640975926 6.6850870945 1 -1 0
175 96 1 0.0 20.1964172769 6.3537980818 10.2834156618 0 -1 0
176 32 1 0.0 20.2171846498 3.0447442877 11.4608796941 1 0 0
177 20 1 0.0 23.1752488395 4.3757329266 10.1199233622 0 0 0
178 20 1 0.0 23.5410925182 3.4171635547 10.4997136766 0 0 0
179 111 1 0.0 22.8741735057 1.013152365 8.6454295372 1 0 0
180 117 1 0.0 19.8560719499 5.5959275184 7.5866822959 1 -1 0
181 45 1 0.0 18.3046546362 29.8544856539 11.2619282712 1 -1 0
182 20 1 0.0 26.6107256233 1.5520029613 8.018719458 0 0 0
183 20 1 0.0 25.4179508373 4.0121320092 7.614907673 0 0 0
184 103 1 0.0 28.0316471203 5.7699312856 8.0287620864 0 -1 0
185 103 1 0.0 26.63097734 3.6092769944 11.3183033638 0 -1 0
186 3 1 0.0 0.2515808294 4.4577444946 10.983037917 1 -1 0
187 73 1 0.0 26.8124842671 0.6064817753 11.0019855893 2 1 0
188 43 1 0.0 4.0886578155 9.2855165974 7.7326170524 2 1 0
189 79 1 0.0 2.686143005 6.2930633408 8.1809864012 1 0 0
190 43 1 0.0 2.3589654714 10.5496123799 7.1776655794 1 1 0
191 43 1 0.0 1.2053208983 10.0839697429 9.7677768516 1 1 0
192 43 1 0.0 4.4977364513 8.744175328 9.9200103899 2 1 0
193 47 1 0.0 1.7746396303 7.2905642935 11.2164549448 1 -1 0
194 24 1 0.0 9.4059000716 8.0412994281 9.4847679922 1 0 0
195 79 1 0.0 6.2223616294 6.2965244067 7.4323671725 1 0 0
196 84 1 0.0 8.1357376255 9.8092860445 6.8531819041 1 -1 0
197 84 1 0.0 10.7548059009 11.4373088251 10.3477909306 1 -1 0
198 115 1 0.0 6.9114084909 10.7706321394 11.4925435791 1 0 0
199 24 1 0.0 8.8816221294 8.8635206534 9.8556235502 1 0 0
200 101 1 0.0 13.2392213451 7.3694427293 6.8926896048 1 -1 0
201 101 1 0.0 12.5440021473 8.6357303273 9.3137161142 1 -1 0
202 48 1 0.0 16.9410246262 6.3921253001 10.1790447626 1 -1 0
203 48 1 0.0 15.4713023399 7.0571830114 10.5142509039 1 -1 0
204 48 1 0.0 15.2633530888 9.8455009948 8.1390366415 1 -1 0
205 48 1 0.0 16.9148572684 7.3374334854 8.0187471753 1 -1 0
206 99 1 0.0 21.1422644654 9.539073554 6.4219073302 0 -1 0
207 96 1 0.0 18.5806485414 9.6320329025 9.4599070987 1 -1 0
208 121 1 0.0 19.9872691584 12.3839505657 11.5538963006 1 0 0
209 121 1 0.0 21.6070901041 10.625342535 10.7875570425 1 0 0
210 99 1 0.0 21.5478543127 8.6819726942 8.352861295 0 -1 0
211 113 1 0.0 24.6427272843 8.5024142164 10.8096032348 0 0 0
212 99 1 0.0 25.1130458754 7.5095976392 6.6632065799 0 -1 0
213 3 1 0.0 28.4997657943 8.1843150768 9.6701762306 1 -1 0
214 42 1 0.0 25.3066632841 10.7330641794 6.5946285211 1 0 0
215 113 1 0.0 24.5309252517 9.0006811488 10.2757798928 0 0 0
216 86 1 0.0 28.9830373766 12.3788436458 8.6684167005 1 -1 0
217 88 1 0.0 5.6352238702 12.0455927602 6.8395434238 1 -1 0
218 26 1 0.0 4.1745890105 15.2197752765 6.5688213304 1 0 0
219 12 1 0.0 1.6541235789 17.4054458991 6.6115380166 1 -1 0
220 12 1 0.0 1.5802820357 13.6434591194 7.9950976094 1 0 0
221 12 1 0.0 1.810495494 13.3437273458 10.0691673541 1 0 0
222 102 1 0.0 4.2730419386 14.8857330553 11.6815813399 2 0 0
223 115 1 0.0 6.8896245968 14.8590977939 8.5273576103 2 0 0
224 115 1 0.0 7.4120395523 11.9752602647 9.2697004357 1 0 0
225 63 1 0.0 11.0526654147 16.3411371606 10.63130194 1 -1 0
226 63 1 0.0 10.14323209 14.392548058 8.3178956793 1 -2 0
227 97 1 0.0 7.5109109349 16.9022051336 10.8393140357 1 -1 0
228 84 1 0.0 12.6578928298 11.8503194459 9.5055329744 1 -1 0
229 11 1 0.0 14.2129826829 14.5354046682 7.572921916 1 0 0
230 63 1 0.0 14.4068204011 16.212490199 11.8695663688 1 -1 0
231 63 1 0.0 17.2743458329 15.9632495541 9.5028186008 1 -1 0
232 109 1 0.0 15.1533168041 13.1533692567 11.5706625486 1 -1 0
233 109 1 0.0 16.9411354122 14.1114876076 12.2058801299 1 -2 0
234 109 1 0.0 16.6682070938 12.6959927393 9.1357165834 1 0 0
235 109 1 0.0 17.1243415376 15.2093032291 6.6901275479 1 0 0
236 11 1 0.0 13.6816569147 17.3976188556 9.2601227126 1 0 0
237 30 1 0.0 24.5462181711 15.5795019018 6.5273925476 0 -1 0
238 38 1 0.0 22.3336958646 12.5531487822 7.8051307632 0 -1 0
239 2 1 0.0 19.9874521705 15.3926011303 10.2167986248 1 -1 0
240 2 1 0.0 20.1022723854 18.0860020784 8.3152846106 1 -1 0
241 38 1 0.0 22.2292067857 12.3465949523 8.260518472 1 0 0
242 87 1 0.0 24.1153883195 16.0939729628 11.5336350342 0 -2 0
243 102 1 0.0 29.886467806 16.1016788635 10.9284690113 0 0 0
244 38 1 0.0 25.9377305625 11.7483751629 10.5015357591 1 0 0
245 38 1 0.0 25.6281662197 13.3146327241 9.7894253046 1 0 0
246 58 1 0.0 26.1717261806 16.7848260283 9.0879532106 0 0 0
247 58 1 0.0 28.4225562372 16.6645651257 6.9928700787 0 0 0
248 86 1 0.0 28.5285305769 14.0763482995 9.3806050776 1 -1 0
249 87 1 0.0 24.742517327 15.7139889974 12.5658111701 1 -1 0
250 4 1 0.0 2.289399497 17.5403009055 12.2557108879 2 -2 0
251 122 1 0.0 4.1474426091 22.7177563557 9.895106174 1 -1 0
252 12 1 0.0 3.1083966331 18.1832770373 7.8312546484 1 -1 0
253 46 1 0.0 5.3093822463 21.6842134514 6.375937803 1 -1 0
254 46 1 0.0 0.8230985903 20.8789090178 10.057049002 1 -1 0
255 118 1 0.0 0.7794247908 24.1308128415 10.0711461369 2 -1 0
256 40 1 0.0 8.6812807656 21.8190299877 6.8014780503 1 -1 0
257 97 1 0.0 5.5177206665 19.2021092263 9.5849119567 0 -1 0
258 59 1 0.0 7.760862745 18.7063771558 6.9087513485 2 0 0
259 59 1 0.0 10.0396475 18.6205330404 8.6110075354 2 0 0
260 59 1 0.0 10.4614201442 19.3176070264 10.3952947042 2 0 0
261 59 1 0.0 7.8603359968 20.5631909714 11.3140181719 2 0 0
262 80 1 0.0 9.3311293712 23.6433369906 11.7598109256 2 -2 0
263 106 1 0.0 12.4083780795 21.6447465471 11.5449604551 1 0 0
264 11 1 0.0 13.6813758584 18.2616716936 7.7080150183 1 0 0
265 39 1 0.0 15.7561754 19.5687863536 9.8191491786 1 0 0
266 83 1 0.0 16.4372096619 22.1472179384 8.6426888236 2 -1 0
267 39 1 0.0 12.4409615459 21.4268066356 8.5464495953 1 0 0
268 83 1 0.0 16.049765124 22.0879049675 13.1872760497 1 -1 0
269 120 1 0.0 18.1576636052 22.9546708474 5.7479853434 1 -2 0
270 14 1 0.0 18.1090340254 19.5291466373 12.4016498377 0 -1 0
271 83 1 0.0 19.2050047441 24.8143594532 8.5285868007 1 -2 0
272 2 1 0.0 19.9346251603 19.7417944537 9.2409473731 0 -1 0
273 67 1 0.0 21.7374968267 22.6035695925 7.7979712949 1 -1 0
274 55 1 0.0 18.6534766613 22.816415142 10.8132178369 1 -1 0
275 58 1 0.0 23.2287399702 18.1881138881 8.6204536157 0 1 0
276 67 1 0.0 22.5716160931 20.8470186049 10.509270721 1 -1 0
277 55 1 0.0 19.641650136 22.1129031392 12.9332320441 1 -1 0
278 46 1 0.0 29.6884401852 20.2098495643 8.024948691 0 -1 0
279 65 1 0.0 24.5923456998 21.2425503997 8.2484213311 2 -1 0
280 87 1 0.0 26.2469198264 19.5818361925 11.5716433661 0 -2 0
281 67 1 0.0 24.3497926979 22.5802464929 11.8963720658 1 -1 0
282 118 1 0.0 1.6555990855 26.7340885341 8.2153383735 2 -1 0
283 91 1 0.0 1.5465701526 0.1243516079 10.0962121913 1 0 0
284 91 1 0.0 5.436816856 29.7016947621 9.5516493165 1 -2 0
285 122 1 0.0 6.3711302719 24.219101789 10.3608452814 1 -1 0
286 68 1 0.0 4.1037514886 25.046414021 6.0728249555 1 -1 0
287 68 1 0.0 5.1086833702 26.8148540238 8.3534954285 1 -1 0
288 91 1 0.0 0.5437744441 26.6487005454 11.5729642608 1 -1 0
289 70 1 0.0 10.3467451517 28.8615021838 8.9067930722 2 0 0
290 91 1 0.0 6.9595268233 27.6695559929 11.149894574 1 -2 0
291 70 1 0.0 11.3501763195 25.3291034442 8.7798394866 2 -1 0
292 70 1 0.0 8.1562538308 26.0654711359 8.7565125295 2 -1 0
293 70 1 0.0 9.1992761513 24.4260252777 8.8424122853 2 -1 0
294 29 1 0.0 17.3560829927 29.1429594083 8.0106775979 1 0 0
295 108 1 0.0 14.9414845385 25.3212005135 9.1312897895 1 0 0
296 29 1 0.0 13.4963653228 28.7303368439 8.1672730245 1 0 0
297 55 1 0.0 16.9773722749 24.5977633964 10.9832409577 1 -1 0
298 106 1 0.0 13.0877869947 24.1632288083 11.9060870758 1 -1 0
299 29 1 0.0 13.4940594346 27.3882944347 10.7617862785 1 0 0
300 33 1 0.0 20.902084654 25.4746434851 6.0993678482 1 -2 0
301 33 1 0.0 23.5271333279 0.3292184778 11.124535717 1 -1 0
302 5 1 0.0 20.9373873049 27.6017865483 12.2937984732 -1 -1 0
303 29 1 0.0 18.8157577767 27.5578446239 9.5117631517 0 -1 0
304 33 1 0.0 21.3618452321 28.6828446223 6.5586379894 1 -2 0
305 5 1 0.0 22.4317688547 24.9259627006 10.9274355749 -1 -1 0
306 111 1 0.0 22.4480143958 27.7785011316 9.5768389413 1 -1 0
307 65 1 0.0 23.6434803479 24.6234752979 5.6888368631 1 -1 0
308 67 1 0.0 24.8471002862 24.8288996822 8.9799874731 1 -1 0
309 111 1 0.0 25.5422981426 27.9435548878 6.5491890811 0 -1 0
310 34 1 0.0 27.2851346352 24.8132976459 12.1451162653 0 -1 0
311 21 1 0.0 28.6193143369 28.1335203866 9.111103624 0 -1 0
312 36 1 0.0 26.0319676463 27.4766908801 11.9407338727 0 -2 0
313 103 1 0.0 3.3004417985 4.896860418 12.7882055403 2 0 0
314 28 1 0.0 2.0344471031 2.1084097338 13.0190225498 2 0 0
315 76 1 0.0 3.4400826845 3.3847830413 16.942279714 1 -1 0
316 76 1 0.0 3.5109690863 29.9532678185 16.9044757644 1 -2 0
317 76 1 0.0 5.2546928504 4.6830553621 15.0634225523 1 -1 0
318 47 1 0.0 0.4120692319 4.5299125853 14.4348914571 2 -1 0
319 100 1 0.0 5.9708758564 1.2572741029 14.614716798 1 0 0
320 90 1 0.0 0.6304133164 0.8457818066 16.3893169938 1 -1 0
321 76 1 0.0 7.4931895054 3.6449347685 13.9101092979 1 -1 0
322 56 1 0.0 7.5396823926 5.3431920109 16.9016190204 1 -1 0
323 100 1 0.0 9.1016776581 1.9265196409 17.0084185002 1 0 0
324 100 1 0.0 10.9444135295 3.9108555729 14.1283145575 1 0 0
325 100 1 0.0 6.2217255806 1.7952669399 16.5506513267 1 0 0
326 123 1 0.0 9.4234814755 0.3052902925 14.3419010556 1 0 0
327 23 1 0.0 12.3916165575 3.4690969063 16.8699706292 1 0 0
328 75 1 0.0 16.445662514 2.8399629242 12.3282184784 2 1 0
329 23 1 0.0 12.4697600259 0.7551587951 14.4701331606 1 0 0
330 75 1 0.0 15.7618976198 0.2470083535 13.5719989214 2 1 0
331 19 1 0.0 16.6508140708 3.7658709651 15.6813843595 1 -1 0
332 19 1 0.0 15.0544082649 1.4091326983 17.0558214826 1 0 0
333 96 1 0.0 19.214290982 4.6603702556 13.8693796645 1 -1 0
334 53 1 0.0 22.2958107522 4.7492338528 13.7935492108 1 0 0
335 16 1 0.0 22.0124279728 2.9918983407 17.0205605201 0 -1 0
336 16 1 0.0 20.8118705148 5.9281744906 16.4584851809 0 -2 0
337 16 1 0.0 19.3961003604 1.5017244894 16.7347583975 1 -1 0
338 16 1 0.0 19.6259908851 4.0760946773 17.0091917406 1 -1 0
339 19 1 0.0 19.9104849915 0.6448143442 13.5792696749 0 0 0
340 90 1 0.0 0.1577061258 3.3354856496 17.2398149899 1 -1 0
341 90 1 0.0 27.3782884393 2.7056170407 16.8104840234 0 -1 0
342 103 1 0.0 28.5714797235 2.1605064586 13.6345360902 1 0 0
343 73 1 0.0 24.6714991464 2.082746524 13.5422221957 1 1 0
344 73 1 0.0 24.6440619161 1.0926744726 15.9218745599 1 1 0
345 53 1 0.0 24.3836445751 4.8822308455 16.5078136337 1 0 0
346 53 1 0.0 25.3175995978 5.0386398278 16.0341576469 1 0 0
347 90 1 0.0 29.2681164461 0.063004619 16.3291765791 0 -1 0
348 37 1 0.0 0.3682446723 6.3531460189 16.5951655527 1 0 0
349 35 1 0.0 5.4557071323 7.8941111441 12.830160797 1 -1 0
350 35 1 0.0 4.6638461942 9.2767870028 16.8310738381 1 -1 0
351 37 1 0.0 1.6626965998 7.8422326347 16.9769618493 2 0 0
352 47 1 0.0 2.9965584697 11.3976036506 12.1037203613 2 -1 0
353 35 1 0.0 4.5284805482 10.973250468 16.8546598483 1 -1 0
354 47 1 0.0 1.5847719096 12.1774523609 15.7981837649 2 -1 0
355 24 1 0.0 10.4472490542 7.2680885847 12.267488562 1 0 0
356 56 1 0.0 7.183429823 6.9684926365 15.4266467899 2 0 0
357 85 1 0.0 10.7720807638 6.2538304826 16.8409259398 0 -2 0
358 35 1 0.0 5.3122294092 10.7408022783 14.9420562417 1 -1 0
359 85 1 0.0 12.1193438554 8.4493681635 16.2285735225 1 -1 0
360 24 1 0.0 9.8221711534 8.3920350366 13.0856188228 1 0 0
361 85 1 0.0 11.632112879 10.4429259674 16.3686831817 1 -1 0
362 85 1 0.0 9.5803551271 9.751905533 16.2032556851 1 -2 0
363 112 1 0.0 9.7826490507 11.4501619137 13.5171263692 1 -1 0
364 23 1 0.0 13.8781627538 5.8871426425 16.6463606234 1 0 0
365 23 1 0.0 15.9985910503 6.2964456264 14.1731018676 1 0 0
366 81 1 0.0 13.2951449143 10.0979274374 12.3652407103 1 -1 0
367 81 1 0.0 14.7860974516 11.0095090543 16.7564146185 1 -1 0
368 81 1 0.0 14.6343428622 9.4562674568 16.8903903649 1 -1 0
369 96 1 0.0 17.2278354981 6.7826230932 17.0104384471 1 0 0
370 81 1 0.0 13.9118457525 9.5552837159 12.4289843192 1 -1 0
371 119 1 0.0 16.4413926086 11.2005541332 13.9109769677 0 -1 0
372 53 1 0.0 22.079231619 7.7710057709 13.2887593916 2 0 0
373 121 1 0.0 17.8832970798 8.4870776505 12.9953318127 1 0 0
374 119 1 0.0 17.7398702637 11.3603695554 14.0799022605 1 -1 0
375 78 1 0.0 24.3330491037 11.4872267476 13.1380315705 1 -1 0
376 78 1 0.0 21.0738337799 11.1709919361 13.7697857382 1 -1 0
377 121 1 0.0 19.0855049622 8.3254742303 12.5850658298 1 0 0
378 93 1 0.0 21.0469656856 11.2409475164 16.8397089634 1 -1 0
379 93 1 0.0 18.9134289388 10.4616230588 16.7495433657 1 -1 0
380 93 1 0.0 19.589687121 8.5507523808 16.3386366071 1 -1 0
381 93 1 0.0 23.8035344785 7.9480299026 16.542310876 1 -1 0
382 37 1 0.0 28.0860055241 7.0747455167 17.0497232352 0 0 0
383 37 1 0.0 29.4411416985 9.4110862265 16.62666135 0 0 0
384 3 1 0.0 29.2796768537 9.208968417 12.7722560401 1 -1 0
385 3 1 0.0 29.9257088646 7.4504216743 13.5912086146 0 -1 0
386 113 1 0.0 24.9855686937 5.9695838078 12.8988450581 0 0 0
387 113 1 0.0 25.4582795206 7.3181028354 14.0366277293 0 0 0
388 69 1 0.0 25.9921284363 10.4314624921 16.8768367834 1 1 0
389 86 1 0.0 29.802391834 12.352478486 13.0458037836 1 -1 0
390 69 1 0.0 24.6013743107 11.5848550682 16.9232619001 1 -1 0
391 18 1 0.0 3.3896881242 15.2027753719 16.9101903891 2 -1 0
392 18 1 0.0 4.5403600194 13.8223985193 15.4672317387 1 -1 0
393 18 1 0.0 4.1296707745 16.818896555 14.2765461081 1 -1 0
394 18 1 0.0 3.2151451726 17.6554375984 15.9776759809 2 -1 0
395 4 1 0.0 0.9745877705 15.504231553 14.3211531557 1 -2 0
396 51 1 0.0 0.2594226572 17.7707467111 16.7052692919 2 -1 0
397 115 1 0.0 7.7248136259 13.1086330008 16.2625807672 1 -1 0
398 112 1 0.0 6.9076662748 16.5212324102 16.320791703 1 -1 0
399 112 1 0.0 7.1928407853 14.0514553668 12.8536589346 1 -1 0
400 72 1 0.0 10.5124082324 13.3020117784 16.8353430577 1 0 0
401 72 1 0.0 9.919387409 14.750270599 14.4497370687 1 0 0
402 97 1 0.0 8.610984467 17.4873308674 13.9157394245 1 -1 0
403 105 1 0.0 10.2722788045 17.1380528723 16.9762025179 1 -1 0
404 112 1 0.0 12.7458254996 12.7825420076 14.3670405379 1 -1 0
405 119 1 0.0 15.44836999 15.6155007118 15.2909524809 1 -1 0
406 72 1 0.0 13.1637795491 14.3887760937 17.1473154221 2 0 0
407 119 1 0.0 17.101484521 16.3772145892 17.2312527976 1 -1 0
408 72 1 0.0 11.7044229291 16.4292665948 13.7237723196 1 -1 0
409 22 1 0.0 16.969387118 18.8754629025 15.1762084741 1 0 0
410 22 1 0.0 16.6406021712 13.306575856 16.9829833625 1 0 0
411 77 1 0.0 21.1458399824 15.9850130027 13.3249060983 0 -2 0
412 71 1 0.0 23.2948881962 17.7659302254 15.3681733887 2 -1 0
413 22 1 0.0 18.2459929986 17.1083099755 13.9956330696 1 0 0
414 71 1 0.0 22.9412540866 18.6899697425 16.8848647782 1 -1 0
415 22 1 0.0 19.0594935799 14.5737783011 16.3217332248 1 0 0
416 78 1 0.0 22.6815198972 14.4427527124 16.6732399997 1 -1 0
417 77 1 0.0 22.0668975619 14.2578618073 13.827514912 0 -2 0
418 71 1 0.0 20.9798369035 16.9959642322 16.3198404961 2 -1 0
419 4 1 0.0 27.3991698006 16.7440694734 13.804110117 0 -1 0
420 69 1 0.0 29.1855751986 13.3161546153 17.1118289565 1 0 0
421 69 1 0.0 28.5015503056 14.2173467484 17.1872709483 1 -1 0
422 86 1 0.0 29.802846118 12.2856349579 12.9511173641 1 -1 0
423 78 1 0.0 25.4437696206 13.3077040589 14.6185078544 1 -1 0
424 77 1 0.0 25.4947454251 15.8421175524 16.941006671 0 -2 0
425 4 1 0.0 27.7246414804 15.2488535046 14.226555056 0 -1 0
426 51 1 0.0 29.6862284263 17.2632642762 16.6370597375 1 -1 0
427 77 1 0.0 25.9381151923 17.6685590547 17.0743503751 0 -2 0
428 102 1 0.0 6.0487993024 18.9544378484 13.2770579477 2 -1 0
429 102 1 0.0 3.7802642966 20.677982348 13.3948845877 2 -1 0
430 104 1 0.0 1.6887521214 20.4418602185 15.7079582443 2 -1 0
431 104 1 0.0 0.7486271881 22.8235077743 17.0435700834 2 -1 0
432 97 1 0.0 6.1295058178 19.9896962806 16.031628607 1 -1 0
433 118 1 0.0 1.3253448748 23.4527149322 13.2438316014 2 -1 0
434 80 1 0.0 6.1129312501 22.9187261845 13.8653253524 1 -2 0
435 105 1 0.0 10.4575383137 18.1396849558 16.8688292986 1 -1 0
436 1 1 0.0 8.7278124531 21.6282808482 16.4143793339 1 -1 0
437 1 1 0.0 10.7680916966 21.7373913215 17.236159327 1 -2 0
438 1 1 0.0 9.0618329578 24.3314021931 16.7648565527 1 -1 0
439 106 1 0.0 11.785255191 21.1836230881 13.9209032325 1 0 0
440 1 1 0.0 7.7586539403 22.9917527092 16.1857325384 1 -1 0
441 106 1 0.0 11.7494273342 23.6337049691 14.2251027152 1 -1 0
442 105 1 0.0 13.9576942308 18.1504221726 17.1122601686 1 -1 0
443 14 1 0.0 14.3656759479 19.7003801783 13.1323437593 0 -1 0
444 105 1 0.0 13.8081377838 19.5641514795 17.0910360855 1 -1 0
445 13 1 0.0 13.491687878 22.9901711489 16.9963887179 0 -1 0
446 14 1 0.0 16.2203944802 21.5962903965 16.6887303678 0 -1 0
447 2 1 0.0 21.3162591417 19.0984436935 12.8956295108 0 -2 0
448 71 1 0.0 20.1561882948 17.3833176665 17.0184630626 1 -1 0
449 61 1 0.0 22.0679273127 21.8640637253 16.1714562275 2 -1 0
450 14 1 0.0 18.5233142478 21.1968724182 16.096211751 0 -1 0
451 34 1 0.0 28.455831489 22.5538680991 12.2431208971 0 -1 0
452 104 1 0.0 29.2665562963 19.1925187495 13.5202949397 1 -1 0
453 51 1 0.0 28.4355027437 20.0944779462 16.4422377621 1 -1 0
454 87 1 0.0 25.6491030608 19.3307045542 12.5103935186 0 -1 0
455 61 1 0.0 25.2136958404 20.6300066045 15.5711348345 1 -1 0
456 104 1 0.0 28.0951549419 23.568646403 16.2019065349 1 -1 0
457 61 1 0.0 25.8570170172 21.8635275757 17.0465474819 1 -1 0
458 51 1 0.0 28.2930831912 19.6980633196 17.0417231339 1 -1 0
459 28 1 0.0 3.7492067829 27.5919219992 13.4469037222 1 -1 0
460 118 1 0.0 3.5743225961 24.3164356433 14.6280467184 2 -1 0
461 28 1 0.0 1.8993394424 28.4806798408 15.0592711814 1 -1 0
462 122 1 0.0 3.0834300065 26.8429503084 16.8504617333 2 -1 0
463 34 1 0.0 0.0966067801 25.9717510867 16.730597201 1 -1 0
464 80 1 0.0 10.1006291905 26.0671731882 11.851544261 2 -2 0
465 80 1 0.0 5.9775674633 25.0960230245 17.004173308 1 -2 0
466 123 1 0.0 8.3663024461 29.0021394667 16.2885511322 0 -1 0
467 122 1 0.0 7.8954569237 26.6683070388 14.3101757463 1 -1 0
468 123 1 0.0 9.4914544243 29.5173436739 13.9613125502 1 -1 0
469 123 1 0.0 8.0453253397 27.5429775179 17.1665981188 1 -1 0
470 114 1 0.0 10.9792154994 26.5760921311 15.2903601163 2 -1 0
471 114 1 0.0 10.9142958078 27.0476733122 17.05627037 1 -1 0
472 55 1 0.0 15.7165973724 26.6931699232 13.610769657 1 -1 0
473 114 1 0.0 12.8531906618 27.7258653118 14.4363419461 1 -1 0
474 114 1 0.0 12.3938173362 29.074686094 16.8577158412 1 -1 0
475 13 1 0.0 13.8875396412 25.4548463824 16.5075078584 0 -1 0
476 13 1 0.0 16.3852834472 25.4908488617 16.766944213 0 -1 0
477 13 1 0.0 15.5474297827 26.6759976433 16.8132836831 0 -1 0
478 19 1 0.0 16.4649039467 29.4112631085 16.4324324869 1 -1 0
479 5 1 0.0 21.559465165 24.3968234044 12.2350838724 -1 -1 0
480 5 1 0.0 19.6947446616 27.91113754 13.4347158813 -1 -1 0
481 61 1 0.0 23.7877964074 23.4745355542 16.8736707333 0 -1 0
482 83 1 0.0 18.2039352932 24.6271651151 14.4877712881 1 -1 0
483 33 1 0.0 23.0071926917 28.8830492368 13.7501938594 1 -2 0
484 57 1 0.0 19.7711630518 27.426671035 17.0612269689 1 -1 0
485 57 1 0.0 20.7790241894 26.1809089601 16.5237113114 0 -1 0
486 57 1 0.0 22.982094232 27.0520611856 16.9219941902 0 -1 0
487 57 1 0.0 21.5216201272 29.5760427242 16.8193453482 1 -1 0