# LAMMPS data file written by OVITO Pro 3.7.4
490 atoms
392 bonds
294 angles
196 dihedrals
1 atom types
1 bond types
1 angle types
1 dihedral types
0.0 30.0 xlo xhi
0.0 30.0 ylo yhi
0.0 25.0 zlo zhi

Atoms  # full

1 58 1 0.0 4.6006494071 4.0357285679 3.5136984806 0 -1 0
2 22 1 0.0 4.1381913186 5.1162669985 6.6050179837 0 -1 0
3 14 1 0.0 0.5126154543 4.4109932949 3.1487748151 0 -1 0
4 58 1 0.0 6.0300971047 4.141960642 3.2990409359 0 -1 0
5 49 1 0.0 1.320428022 1.545253385 3.34798528 1 0 0
6 22 1 0.0 4.5818111387 5.5261976116 7.2021998365 0 1 0
7 14 1 0.0 29.289247992 4.9694520565 6.3705247061 -1 0 0
8 4 1 0.0 8.8199650499 4.8031183274 2.8150148032 0 -1 0
9 4 1 0.0 10.3033142996 4.5930728208 5.4723603685 1 0 0
10 4 1 0.0 5.8201801125 1.1547581949 3.2390514609 0 -1 0
11 6 1 0.0 9.9750764397 1.8069609058 3.0020598012 0 1 0
12 22 1 0.0 7.7187519787 2.699658088 5.4550979653 0 -1 0
13 55 1 0.0 12.8498250119 3.3601604026 3.5831054648 1 0 0
14 3 1 0.0 14.7205997316 5.6813700565 2.934328285 0 0 0
15 8 1 0.0 17.6796654003 2.6072677361 2.9139177411 -1 1 0
16 8 1 0.0 15.9502230728 0.9761574115 3.1597999424 -1 1 0
17 55 1 0.0 13.8738874596 5.6702695184 6.4503495773 1 0 0
18 55 1 0.0 13.038799291 0.0137235626 6.1801563901 1 1 0
19 8 1 0.0 17.7567097229 2.9102802478 4.9044249263 -1 1 0
20 52 1 0.0 21.5736941976 1.9860634107 3.3089013792 0 0 0
21 52 1 0.0 21.8169457734 0.7817036957 2.9383206879 -1 0 0
22 5 1 0.0 18.1114065968 5.8063708727 3.254270477 -1 0 0
23 45 1 0.0 21.0529651645 5.4510579497 5.0858335076 0 0 0
24 77 1 0.0 23.9686472947 4.3634364357 2.9169830519 -1 0 0
25 72 1 0.0 28.3227081642 1.5339294512 3.2218652595 0 1 0
26 52 1 0.0 24.6266964584 1.1053662205 3.0179719556 -1 0 0
27 52 1 0.0 25.2932224605 1.3013318356 3.1248092264 1 1 0
28 72 1 0.0 27.3028264784 3.4872647373 4.3005175177 0 0 0
29 72 1 0.0 27.8335323248 0.1358485519 4.1777648789 0 0 0
30 72 1 0.0 27.1421006979 4.0537801938 3.1073640209 0 0 0
31 22 1 0.0 4.3801849056 6.9951609638 3.4976911202 0 0 0
32 14 1 0.0 29.4067133501 6.2133217988 3.2927228711 -1 0 0
33 22 1 0.0 2.5794490588 6.7739894737 3.5408227803 0 -1 0
34 62 1 0.0 0.788731076 9.1239047255 3.8862020616 1 0 0
35 23 1 0.0 1.3286122102 11.7556331243 6.7190649193 -1 0 0
36 70 1 0.0 3.8328603966 9.7762745236 2.8588694695 0 0 0
37 23 1 0.0 3.8689599975 9.0130689221 5.9418116594 0 0 0
38 58 1 0.0 7.5271497254 6.3164931358 5.7215577033 0 0 0
39 70 1 0.0 8.307223876 12.3546986608 4.2219525373 0 -1 0
40 70 1 0.0 8.4437606871 8.846708685 3.1200611332 0 0 0
41 70 1 0.0 7.3477311245 8.2513348808 3.3419907946 0 0 0
42 3 1 0.0 11.2616015248 9.0078941368 5.2044818448 -1 0 0
43 23 1 0.0 5.3430215862 10.0818962005 6.0471496215 0 0 0
44 3 1 0.0 11.5928765898 5.9448296979 2.9475479141 -1 0 0
45 3 1 0.0 14.7021181267 7.3427597661 3.2733743725 0 0 0
46 3 1 0.0 12.6442093673 6.7031358152 3.3815115905 0 0 0
47 73 1 0.0 17.1989573438 10.0811475499 3.0213639813 1 0 0
48 5 1 0.0 15.1995514143 9.7329083361 5.7162420849 0 0 0
49 73 1 0.0 12.8697645975 11.3120830063 2.8515232161 1 0 0
50 76 1 0.0 17.4352402125 7.5311162314 6.4176959409 1 0 0
51 5 1 0.0 20.0623081172 10.9457004293 5.8832102237 0 -1 0
52 5 1 0.0 20.2486994056 8.3611553361 3.3805153063 -1 0 0
53 45 1 0.0 22.9715605935 7.2335295698 3.1506725458 0 0 0
54 90 1 0.0 21.7143481367 11.1700538417 2.9452899097 0 -1 0
55 11 1 0.0 23.603886404 7.5327231431 6.5834131932 0 0 0
56 11 1 0.0 25.2055462077 10.0405735023 6.72210617 0 0 0
57 14 1 0.0 1.2165695036 7.2152836194 6.5002507881 0 0 0
58 62 1 0.0 28.0597203096 9.9626498207 3.1448266831 0 0 0
59 62 1 0.0 25.7846364502 11.6068593403 3.4341732355 0 0 0
60 77 1 0.0 26.4720793347 7.2825530348 3.1198901597 -1 0 0
61 62 1 0.0 25.6830360275 10.3362641508 2.8592042307 0 0 0
62 62 1 0.0 28.2237691025 12.0115120093 5.4231325088 0 0 0
63 70 1 0.0 5.1458181154 12.341369883 3.4831747642 0 -1 0
64 29 1 0.0 1.3020740024 12.3121909316 3.1831778552 1 0 0
65 29 1 0.0 3.5341502877 15.3650413198 3.4997182407 1 0 0
66 93 1 0.0 4.3331527283 18.818574738 3.0600831736 0 -1 0
67 66 1 0.0 5.6140192607 13.3739903635 6.2262235408 1 -1 0
68 75 1 0.0 29.9387201707 15.2065925544 6.1874713374 0 0 0
69 75 1 0.0 3.0184508817 17.0023502017 6.634626685 1 0 0
70 29 1 0.0 29.9416967995 12.7222258378 2.9826075955 0 0 0
71 29 1 0.0 0.5659177074 14.7246565576 3.1191449127 0 0 0
72 2 1 0.0 8.9233788473 17.2637352575 4.8990232254 0 -1 0
73 2 1 0.0 10.6076290284 18.0118094356 3.0303663962 0 -1 0
74 66 1 0.0 6.3359761995 14.9950061972 3.1972329994 0 0 0
75 66 1 0.0 9.5476251238 14.8856278263 2.8852786303 0 0 0
76 50 1 0.0 6.6198550175 16.6728560071 6.5034634153 1 -2 0
77 2 1 0.0 12.4504742331 16.1817460979 2.9246593569 0 -1 0
78 38 1 0.0 14.7674293185 14.3486585636 3.5956156486 0 0 0
79 73 1 0.0 11.964646103 12.346530129 4.5000317697 1 0 0
80 2 1 0.0 13.4836989405 15.1123296308 6.4041488028 0 -1 0
81 38 1 0.0 16.1001808962 15.8548955119 3.309560373 0 0 0
82 38 1 0.0 15.4638583951 12.5763778903 3.8627074411 0 0 0
83 38 1 0.0 18.7509591351 12.8809503536 3.2990517767 0 0 0
84 90 1 0.0 22.9136263867 13.9810747822 2.6680312559 0 -1 0
85 41 1 0.0 22.6575202507 15.842980568 5.2236586834 0 0 0
86 38 1 0.0 19.2539411273 14.8944656467 2.9309232479 0 1 0
87 98 1 0.0 20.6076141024 18.4763583075 3.1506537346 0 -1 0
88 90 1 0.0 25.4350482678 14.9594597835 4.4856529936 0 -1 0
89 29 1 0.0 28.1442175764 13.8709178777 3.1528754741 -1 0 0
90 53 1 0.0 25.0591959443 17.0616688576 6.733685686 0 0 0
91 98 1 0.0 23.9925675549 17.4884612057 3.0415089897 0 -1 0
92 53 1 0.0 27.616287891 16.6951745888 3.1879783949 0 1 0
93 93 1 0.0 3.2407064315 20.2031701217 3.3418011967 0 -1 0
94 53 1 0.0 1.4454573171 17.5805412253 3.9694794083 1 1 0
95 93 1 0.0 4.683919193 22.6910650163 3.5952685155 0 -1 0
96 15 1 0.0 0.9517986512 22.6951208492 3.3028536396 0 0 0
97 93 1 0.0 6.103730324 18.8962607904 3.2591351271 0 -1 0
98 93 1 0.0 6.6273306531 20.5459722582 3.1704151277 0 -1 0
99 10 1 0.0 9.5181865139 20.8306446554 3.9778610069 0 0 0
100 10 1 0.0 8.1539008826 23.3127980375 3.3934053774 1 0 0
101 43 1 0.0 13.1603172393 21.4913986413 3.6259245194 0 0 0
102 43 1 0.0 14.1085056188 19.0655701285 3.0403155308 0 0 0
103 26 1 0.0 15.83835305 23.123567046 2.8136326299 0 0 0
104 26 1 0.0 15.1246418921 24.7864131309 2.8612436006 0 -1 0
105 43 1 0.0 17.4032097987 18.8707484997 4.0167129494 0 0 0
106 43 1 0.0 14.3197628366 21.7774209224 5.6622612071 0 0 0
107 78 1 0.0 18.2954975183 22.9414962553 5.2814306395 -1 -1 0
108 78 1 0.0 19.1066081565 21.8580478899 2.9082658228 -1 -1 0
109 78 1 0.0 22.8074813379 21.7913085875 3.0778736911 -1 -2 0
110 98 1 0.0 20.8537640631 19.8136370289 5.0343796287 1 -1 0
111 98 1 0.0 24.0899931898 20.3474695556 5.5978867007 0 0 0
112 15 1 0.0 29.0864335962 20.9773584728 2.8625068581 -1 0 0
113 98 1 0.0 25.0842381096 19.2389146726 4.2052186957 0 0 0
114 1 1 0.0 27.26049323 23.6722715804 2.8447477446 -1 -1 0
115 1 1 0.0 28.4398968162 21.4955635833 6.0130491077 -1 -1 0
116 63 1 0.0 6.0329963558 25.6355716953 3.8173566625 1 -1 0
117 89 1 0.0 2.678200412 25.3822487686 3.41154607 0 -1 0
118 89 1 0.0 2.9827434326 28.9924628434 3.7489967326 0 -1 0
119 89 1 0.0 3.7581374105 28.0042446543 4.8788172869 1 -1 0
120 49 1 0.0 0.4772212161 28.2373013272 2.828510671 1 -1 0
121 89 1 0.0 4.4410839878 28.3390793977 3.2506895484 1 -1 0
122 89 1 0.0 3.4877342471 29.0667252616 3.0526501606 1 -1 0
123 18 1 0.0 29.9996974464 29.9641150906 6.5441939006 -1 -1 0
124 26 1 0.0 12.3004663861 24.6939254263 3.9732500282 0 -1 0
125 10 1 0.0 9.1488143477 25.5947611644 4.966658804 1 0 0
126 6 1 0.0 10.60921439 27.8269189441 3.1601687408 0 0 0
127 63 1 0.0 7.9303283823 28.9298976507 3.0878114755 1 -1 0
128 6 1 0.0 11.3003301649 29.0565743767 3.1424296661 0 0 0
129 49 1 0.0 6.6295832312 27.4992929922 6.1937897355 1 -1 0
130 26 1 0.0 17.3607703491 25.0210486511 3.0923416324 -1 -1 0
131 26 1 0.0 16.5955498726 25.9842097452 2.9803522528 0 -1 0
132 8 1 0.0 16.126110456 28.7373260459 5.1182470026 -1 0 0
133 6 1 0.0 13.5132636408 27.3300946093 3.0552068088 0 0 0
134 6 1 0.0 13.6544958422 28.7941331628 3.1952041888 -1 0 0
135 25 1 0.0 14.7427548361 26.0651202803 5.7824991015 0 0 0
136 31 1 0.0 19.0523753328 28.4377653278 3.1946772141 0 -1 0
137 31 1 0.0 18.8101952331 29.5941113423 3.758719915 -1 -1 0
138 80 1 0.0 22.7783484866 27.4911874501 3.4608884874 -1 -1 0
139 80 1 0.0 22.0345291869 27.2437341383 4.6248082278 0 -1 0
140 78 1 0.0 20.4269498551 24.4211525606 3.034067515 -1 -1 0
141 78 1 0.0 20.8194687154 24.3283695745 5.244861708 -1 -1 0
142 45 1 0.0 24.2210128858 29.3122990132 5.3793578363 0 -1 0
143 1 1 0.0 29.0424155994 25.1059925916 3.852525107 -1 -2 0
144 52 1 0.0 26.046439078 27.3979343642 3.1930530102 1 0 0
145 80 1 0.0 24.2602093393 24.659699741 3.2045317017 0 -1 0
146 1 1 0.0 28.3720581185 25.2680920083 3.0728704269 -1 -1 0
147 80 1 0.0 24.1168456183 24.4171092473 4.9093311232 0 -1 0
148 18 1 0.0 27.3566957582 26.7284678199 6.3236772138 -1 -1 0
149 49 1 0.0 3.3228808409 1.982408109 5.3453921103 1 0 0
150 65 1 0.0 2.1033852902 2.6511653661 9.0697723807 0 0 0
151 65 1 0.0 3.8115056368 1.4425029954 9.4919693271 0 0 0
152 14 1 0.0 0.3754432193 5.735874638 7.9192119711 0 0 0
153 65 1 0.0 2.6892340646 3.8127470379 9.4490130565 0 0 0
154 65 1 0.0 5.3361107697 2.7840732901 10.4042485556 0 0 0
155 54 1 0.0 4.5069678818 5.6262487182 11.8409584645 0 0 0
156 87 1 0.0 3.1875285052 0.6945371047 12.3529718313 0 0 0
157 63 1 0.0 8.5968905305 29.6087088241 5.0887978662 1 -1 0
158 4 1 0.0 10.5284555496 3.2254644549 8.1978175109 -1 0 0
159 21 1 0.0 7.4142676082 4.9748771359 8.5830428536 -1 -1 0
160 4 1 0.0 9.4139151547 1.5257067471 8.2052335009 -1 0 0
161 39 1 0.0 8.1586288498 2.4721945537 11.0817654535 0 0 0
162 39 1 0.0 10.7327848414 1.4824380424 11.581557856 0 0 0
163 35 1 0.0 7.7781073398 5.3811334072 11.6884620852 0 1 0
164 35 1 0.0 9.8373027519 6.8627324211 10.4166632075 0 1 0
165 49 1 0.0 5.1686854482 0.27915108 7.0497061932 1 0 0
166 35 1 0.0 12.111918827 6.6487902397 12.1864133141 1 1 0
167 76 1 0.0 18.3195959781 4.7201186634 7.3724065074 -1 0 0
168 55 1 0.0 13.555145432 4.4472464836 9.5307625137 1 0 0
169 8 1 0.0 15.1976827074 2.8494794896 7.5681199356 -1 1 0
170 48 1 0.0 13.0609892945 2.8794077903 12.0695833984 1 0 0
171 36 1 0.0 16.7397411719 3.184904108 11.9500306776 0 0 0
172 55 1 0.0 12.7666558913 1.3804545434 9.1158822494 0 0 0
173 48 1 0.0 15.2923550368 29.8703459831 11.1221756378 1 -1 0
174 31 1 0.0 16.6817988818 29.7124053353 8.2802867583 0 -2 0
175 45 1 0.0 22.6164447062 0.1011742399 6.9032254047 0 0 0
176 45 1 0.0 20.5634185955 2.259154174 6.644768476 0 0 0
177 91 1 0.0 22.9180580164 3.8972066009 8.0531851497 0 0 0
178 91 1 0.0 22.9286185151 3.3833549939 10.0745476761 0 0 0
179 11 1 0.0 21.4893699903 6.4814270353 10.1996094754 0 0 0
180 91 1 0.0 23.1794553295 3.983072617 7.4726542268 0 0 0
181 9 1 0.0 21.2912051003 29.9084312059 10.5943615218 0 -1 0
182 36 1 0.0 19.5977139805 3.7120668369 10.4187115657 0 0 0
183 77 1 0.0 25.1581408386 2.2269469054 6.0283043783 -1 0 0
184 86 1 0.0 29.6002775139 3.103771306 11.4152771207 -1 0 0
185 18 1 0.0 25.8028509061 1.0796158343 9.9088399035 -1 0 0
186 77 1 0.0 26.5971384426 4.9446173912 8.1704077593 -2 0 0
187 91 1 0.0 23.7110037995 3.3636584637 10.034001444 0 0 0
188 13 1 0.0 29.0014277785 6.2699689648 10.8137259638 -1 1 0
189 18 1 0.0 28.7421781114 2.5610074646 8.3559249206 -1 0 0
190 72 1 0.0 27.1397506153 29.7408285475 7.0036477575 0 0 0
191 58 1 0.0 3.1297241155 7.4388223924 9.0560679748 0 0 0
192 23 1 0.0 3.7512491162 11.95899178 8.8754600568 0 0 0
193 37 1 0.0 1.4299176316 8.5655230408 11.6696325598 1 1 0
194 34 1 0.0 2.009882098 11.3379840306 12.1843019265 0 0 0
195 13 1 0.0 0.178688592 9.6876156599 8.8907735303 0 1 0
196 92 1 0.0 4.7759109857 9.4145679636 10.7233719899 0 1 0
197 58 1 0.0 6.5741119795 8.4410115479 8.340106321 0 0 0
198 21 1 0.0 10.3216614138 7.5453362094 7.6502324205 -1 0 0
199 60 1 0.0 10.4944470721 10.8459540539 8.1731769419 0 0 0
200 92 1 0.0 7.0559180248 9.1620093126 13.0056392956 0 0 0
201 21 1 0.0 12.205560183 9.5454658381 11.0466233575 -1 0 0
202 59 1 0.0 9.1788342443 12.4524430432 11.4354863557 1 0 0
203 76 1 0.0 16.912804071 6.6874750395 10.6863374596 -1 0 0
204 73 1 0.0 13.4355210636 9.1234047039 8.3999932401 1 0 0
205 17 1 0.0 14.26355988 11.65403124 10.8950137074 0 -1 0
206 5 1 0.0 16.6868266689 10.1666695659 8.460841286 0 0 0
207 59 1 0.0 11.5623952592 12.3257250021 12.0374323671 0 0 0
208 91 1 0.0 23.0488582794 8.7524542782 8.8291149395 1 0 0
209 17 1 0.0 20.8761823379 12.4767616815 11.8943414355 0 -1 0
210 11 1 0.0 21.5951591066 7.9244796259 11.7729383284 0 0 0
211 41 1 0.0 21.1296085543 11.9095870167 8.4145110034 0 0 0
212 76 1 0.0 20.2127996543 8.2218198105 7.2019349948 1 0 0
213 95 1 0.0 17.7572582021 11.7991612865 11.1177133146 0 0 0
214 76 1 0.0 19.7292096446 9.346574433 9.466830929 -1 0 0
215 77 1 0.0 27.5592949905 8.0726113576 6.400971001 -1 0 0
216 13 1 0.0 28.316489487 11.4470516661 8.8080133947 -1 0 0
217 13 1 0.0 26.187161517 9.7962904715 9.4917100339 -1 0 0
218 11 1 0.0 24.6273325595 7.2262200435 11.449323904 0 0 0
219 37 1 0.0 28.2016093064 9.3928064584 12.4142499563 0 1 0
220 67 1 0.0 23.9747561345 11.2266951355 11.4290834268 0 0 0
221 23 1 0.0 2.0661642238 12.8490685725 7.3070862563 0 0 0
222 75 1 0.0 1.9442007171 15.4079573865 10.8409818506 1 0 0
223 92 1 0.0 5.2607562746 13.043897628 11.072139285 1 0 0
224 75 1 0.0 4.4199159627 15.0078080204 8.5541521716 1 -1 0
225 66 1 0.0 10.5015536262 13.7091377997 7.1352073769 1 0 0
226 50 1 0.0 10.5001404567 16.9197180451 7.9369857983 1 -2 0
227 66 1 0.0 7.4480878561 12.6215616818 7.8903198613 1 -1 0
228 59 1 0.0 8.2773837202 15.6233003675 10.8475217746 1 0 0
229 60 1 0.0 10.9386927605 14.8419229962 10.030660456 0 0 0
230 59 1 0.0 10.2250559056 18.4832202251 11.6922811985 1 0 0
231 73 1 0.0 13.4087825464 11.3350837555 7.6221465746 0 0 0
232 17 1 0.0 15.4928724819 13.0383685951 9.387808771 1 0 0
233 59 1 0.0 13.5261646811 15.506985907 11.2658378748 0 0 0
234 71 1 0.0 15.8692017141 16.1846869879 8.2513922664 1 0 0
235 71 1 0.0 16.5581406715 16.5980992389 6.335867336 0 0 0
236 2 1 0.0 12.937843357 16.4253504274 6.5348638832 0 -1 0
237 71 1 0.0 17.9873955581 15.3203681561 12.3324123355 1 0 0
238 41 1 0.0 22.4830510877 13.2378486749 6.4169600729 0 0 0
239 41 1 0.0 20.7963623944 17.097950253 6.2142611069 0 0 0
240 95 1 0.0 19.3599834136 14.469503639 9.6816542836 0 0 0
241 41 1 0.0 19.6753033287 15.9402433444 6.8202812647 0 0 0
242 71 1 0.0 22.3165733253 15.0311830295 11.5040334223 1 0 0
243 28 1 0.0 18.2463907297 18.185686304 8.880477727 0 0 0
244 71 1 0.0 23.0807602446 16.0929536443 8.8515386041 1 0 0
245 90 1 0.0 24.0075364736 13.197051528 8.8647650248 0 -1 0
246 90 1 0.0 26.0024880835 12.9989340016 7.3863326534 0 -1 0
247 75 1 0.0 29.2386941935 14.2607370467 9.1753673803 0 0 0
248 15 1 0.0 0.3005468539 17.6697056 9.2166935473 0 1 0
249 67 1 0.0 26.1456806536 12.0943463547 11.2954279095 0 0 0
250 69 1 0.0 26.8985920432 16.8806028822 9.1235712828 -1 -1 0
251 69 1 0.0 26.2441735609 14.9604396418 10.5369568877 -1 -1 0
252 68 1 0.0 25.3195807796 17.6227413645 12.1846328282 0 0 0
253 1 1 0.0 1.3343452987 19.9562960802 5.682371379 0 -1 0
254 15 1 0.0 3.4652751676 19.3975605808 8.6619610483 0 1 0
255 51 1 0.0 6.4855943433 22.8904130721 9.5564062669 1 -1 0
256 96 1 0.0 29.6939937987 24.2085400894 8.7547951034 -1 0 0
257 96 1 0.0 5.1387858383 22.4990205596 6.5342935823 0 -1 0
258 96 1 0.0 2.07332561 23.1128910611 9.4101453349 0 -1 0
259 47 1 0.0 1.9791314922 20.8762110667 11.8835357876 0 -1 0
260 97 1 0.0 5.7209978998 20.6710385998 12.5684428997 0 -1 0
261 50 1 0.0 6.2498859659 19.6225100724 7.5399464306 1 -1 0
262 50 1 0.0 11.2675985139 20.7010199905 6.9057762125 1 -1 0
263 97 1 0.0 6.2390765678 17.8907191695 11.2738858362 0 0 0
264 50 1 0.0 9.0082355368 22.4471298224 7.3665489493 1 -1 0
265 10 1 0.0 10.1790354165 20.963793229 9.6215906706 1 0 0
266 12 1 0.0 13.3932592408 18.2185658003 8.9977968153 0 0 0
267 43 1 0.0 14.2122990499 19.50424835 6.3960639856 0 0 0
268 12 1 0.0 13.6626519555 22.3554539334 9.0151328371 0 -1 0
269 12 1 0.0 15.9405838768 22.0221920059 9.0130249188 0 0 0
270 12 1 0.0 15.4595346633 18.3171084864 11.3766712078 0 0 0
271 28 1 0.0 20.3477233188 17.7304240323 10.6905176635 0 0 0
272 33 1 0.0 18.8062031384 24.5986220771 9.2100040997 0 -1 0
273 28 1 0.0 20.9607959575 23.8205932633 11.3193154594 0 0 0
274 56 1 0.0 21.072581079 19.8127255124 8.1904273879 0 0 0
275 28 1 0.0 22.3621826389 21.0529550248 11.7066842917 0 0 0
276 28 1 0.0 18.0961216866 20.3235449348 7.6673454593 0 0 0
277 56 1 0.0 21.5535759067 21.7798846591 7.8570254895 0 0 0
278 33 1 0.0 18.9757891104 20.9373604366 11.4977770196 0 0 0
279 53 1 0.0 29.7719225057 20.3764659267 8.4134265248 0 0 0
280 15 1 0.0 27.9739306017 18.2362583674 5.8435844242 -1 0 0
281 27 1 0.0 27.2165754208 22.8329149259 10.38284551 -1 0 0
282 56 1 0.0 24.2084833809 19.1648987748 8.4199173593 0 0 0
283 27 1 0.0 24.755052137 23.3846866732 11.0494427965 -1 -1 0
284 53 1 0.0 26.5836317637 19.842017691 10.3880340883 0 -1 0
285 56 1 0.0 24.0283779672 21.6047207851 8.5451062244 0 0 0
286 56 1 0.0 26.5909172187 23.7559315772 7.744450106 -1 0 0
287 47 1 0.0 0.5846152037 18.8103360242 12.6776998407 0 -1 0
288 96 1 0.0 3.4001639255 24.4863984742 6.0346571514 0 -1 0
289 96 1 0.0 0.9222141632 25.7532861686 7.3739086168 0 -1 0
290 63 1 0.0 5.4959124706 26.0100192643 8.1349820697 1 -1 0
291 65 1 0.0 6.2400417781 29.0900298911 10.4780916783 0 -2 0
292 84 1 0.0 2.5623860082 28.1132168457 8.3854669157 1 -1 0
293 84 1 0.0 29.7520524361 25.0801852812 12.0042910771 0 -1 0
294 87 1 0.0 3.6087723026 26.8489636352 11.0065483967 0 -1 0
295 87 1 0.0 1.8062840807 27.9779207862 11.784105038 0 -1 0
296 51 1 0.0 9.3278891779 24.518065577 9.8787996623 1 -1 0
297 63 1 0.0 9.1504153546 28.7576947449 8.867159977 1 -1 0
298 25 1 0.0 11.9076586401 27.4007169826 6.9218471031 0 0 0
299 51 1 0.0 8.9829391941 27.361123221 11.5924301285 1 -1 0
300 25 1 0.0 16.2307072893 24.8749874133 7.287806573 0 0 0
301 10 1 0.0 11.3795016551 24.4777223005 8.0181561996 1 0 0
302 25 1 0.0 16.3613082219 26.4815938782 10.8575532854 0 0 0
303 33 1 0.0 15.329511867 23.4336599827 11.5608744511 0 -1 0
304 81 1 0.0 12.4204217181 28.4833998187 11.8541177851 0 -1 0
305 25 1 0.0 14.1831304569 27.2430062141 9.2369476993 0 0 0
306 81 1 0.0 12.5802563325 24.5054128664 11.3045569261 0 -1 0
307 31 1 0.0 18.723620711 26.7661968999 6.3318959977 0 -1 0
308 31 1 0.0 19.166931925 29.2138747922 5.9714263587 -1 -1 0
309 9 1 0.0 20.3652828255 27.5908666437 11.2309681117 0 -1 0
310 80 1 0.0 22.7843790757 24.5479632255 7.7883400652 0 -1 0
311 16 1 0.0 23.2603405383 27.1082479898 11.7270953175 0 0 0
312 85 1 0.0 27.3001373737 29.0407813579 11.9224457979 -1 -1 0
313 84 1 0.0 29.201050176 28.554948555 9.5183584331 -1 -2 0
314 16 1 0.0 24.3506262785 29.0130811174 12.1487532195 0 -1 0
315 18 1 0.0 24.1573460274 27.9569841057 8.2297730829 -1 -1 0
316 84 1 0.0 27.3164393207 26.6909443178 9.4067154911 -1 -1 0
317 84 1 0.0 26.860317518 25.7878328372 10.8745120424 -1 -1 0
318 87 1 0.0 4.8443579919 1.273714586 13.2861273374 0 0 0
319 86 1 0.0 2.7689540522 3.8842620607 16.9035695901 1 -1 0
320 86 1 0.0 1.5096025876 3.2115245106 12.6840781791 0 0 0
321 30 1 0.0 1.5324614803 29.3584458172 16.7595353642 0 -1 0
322 87 1 0.0 5.6870147258 0.8042820558 17.0100232098 0 0 0
323 30 1 0.0 2.5796963122 29.8666339732 16.4013453395 0 -1 0
324 48 1 0.0 11.6805553324 29.652115529 15.077967715 0 0 0
325 39 1 0.0 5.2825265417 4.0211250819 14.8121379934 0 0 0
326 20 1 0.0 10.6509935495 5.3434639196 17.0230823037 0 0 0
327 35 1 0.0 10.6022870836 3.7231715657 14.0370546768 1 1 0
328 39 1 0.0 6.8522707645 3.8889613332 17.0729912287 1 0 0
329 35 1 0.0 8.3889150661 29.8151151429 13.3002985067 1 -1 0
330 39 1 0.0 8.8732343751 2.4682311811 17.0931185207 1 0 0
331 20 1 0.0 12.4231503692 2.6710474701 16.7019615941 -1 0 0
332 36 1 0.0 16.810189291 2.9622149138 14.2779144877 0 0 0
333 20 1 0.0 14.8219460104 3.4593243009 17.2314728719 0 0 0
334 81 1 0.0 14.5231041788 0.7395797547 14.2429616489 -1 0 0
335 36 1 0.0 18.4994931558 1.2005242129 16.5508542642 0 0 0
336 64 1 0.0 19.7183646148 4.2954985024 15.5495972719 0 0 0
337 79 1 0.0 22.3186483494 3.4433137215 16.8775516221 0 -1 0
338 9 1 0.0 22.4508319413 1.5863264824 13.2059286383 0 1 0
339 64 1 0.0 18.305292371 4.9417370391 17.0790020622 0 0 0
340 9 1 0.0 19.0203669512 1.1111193753 13.1279932654 0 1 0
341 79 1 0.0 23.5840471025 3.8381489107 16.4688153431 0 -1 0
342 37 1 0.0 29.3431657095 5.9283547345 14.2634846561 0 1 0
343 88 1 0.0 25.9129723399 1.1614408204 16.8248295939 -1 0 0
344 86 1 0.0 26.9682460093 3.4527271457 12.9472285118 -1 0 0
345 86 1 0.0 29.7645437501 3.580162548 17.0404697214 -1 0 0
346 85 1 0.0 28.5926259535 1.3851871896 14.935418567 -1 0 0
347 88 1 0.0 26.8539718914 3.6195158583 16.654185947 -1 0 0
348 54 1 0.0 4.1279056228 8.3844847688 13.8947212339 0 0 0
349 34 1 0.0 0.403362179 9.7119447474 14.6095056252 0 0 0
350 34 1 0.0 1.7517616179 8.621672934 16.6690680171 1 -1 0
351 34 1 0.0 4.0668483671 9.8532095685 16.9186949367 0 -1 0
352 34 1 0.0 5.0523327841 11.4238790321 14.5659056433 0 -1 0
353 54 1 0.0 2.9421247961 6.6077294541 14.215104072 0 0 0
354 94 1 0.0 1.3937150496 12.0420997964 16.9108188201 0 -1 0
355 20 1 0.0 11.4673763718 6.2804438419 16.3261776911 0 0 0
356 54 1 0.0 7.908306892 7.2946773204 16.7435618574 0 0 0
357 21 1 0.0 9.0993308326 6.6860510606 14.0036973131 0 0 0
358 54 1 0.0 7.5749283562 8.9781830269 16.5630445617 0 0 0
359 21 1 0.0 10.0923806698 8.5373794435 14.2287823545 0 0 0
360 92 1 0.0 7.8896914247 10.4223137695 13.4206617195 0 0 0
361 24 1 0.0 10.7063454108 9.3293443828 17.0534896533 0 0 0
362 19 1 0.0 12.6520097462 11.2152299426 15.8623237152 0 0 0
363 20 1 0.0 14.1498883346 5.6167132626 14.2304962974 0 0 0
364 64 1 0.0 16.5417386277 6.9796981707 16.8128389853 0 0 0
365 64 1 0.0 16.2364034371 7.8814133056 14.3517488025 0 0 0
366 19 1 0.0 14.3572555845 10.5962995484 13.6483329556 1 0 0
367 24 1 0.0 14.0384508145 8.6694255639 17.0081839999 -1 0 0
368 24 1 0.0 16.0878531079 10.9899331531 16.9594758399 -1 0 0
369 64 1 0.0 18.9046974216 6.8759162976 12.7446066234 0 0 0
370 79 1 0.0 23.7493111814 5.6627775605 14.2327168447 0 -1 0
371 88 1 0.0 21.2976976661 6.6604499046 16.8445854697 -1 0 0
372 79 1 0.0 18.873592226 9.0161418405 16.8162612396 -2 -1 0
373 79 1 0.0 20.3475566821 9.0616097219 14.622104162 0 -1 0
374 42 1 0.0 21.9941295001 11.1410549686 16.2333478657 0 0 0
375 42 1 0.0 23.1423299944 9.5144358606 16.9860540986 0 0 0
376 13 1 0.0 26.6769382842 7.1232170344 13.4149963954 0 1 0
377 37 1 0.0 28.8215002415 7.2493676576 17.0416832565 -1 1 0
378 94 1 0.0 28.6021645926 11.9400745004 16.9272027996 -1 -1 0
379 37 1 0.0 28.6895336038 8.636823645 16.98092972 0 1 0
380 42 1 0.0 28.1882815036 11.9081287935 13.9066528892 -1 0 0
381 88 1 0.0 25.1780943413 6.4367748225 17.0441755204 -1 0 0
382 42 1 0.0 25.8828576336 9.7379076494 16.7499025113 -1 0 0
383 67 1 0.0 24.6157055802 9.6072096222 13.7164945976 0 0 0
384 94 1 0.0 2.4408589539 13.5398764245 14.2572889547 0 0 0
385 74 1 0.0 2.0529499726 15.0715731661 16.8824689126 1 0 0
386 74 1 0.0 3.4769342892 16.0669755107 17.0106199468 1 0 0
387 94 1 0.0 29.6891040544 14.7116840248 13.2688593903 -1 0 0
388 74 1 0.0 5.3499832612 16.4743338597 13.5812098425 1 0 0
389 74 1 0.0 0.6911399706 17.1062606387 15.7736813783 1 0 0
390 60 1 0.0 5.951678747 13.5122700611 16.9317089988 0 1 0
391 24 1 0.0 9.1673372994 12.9063475621 15.6346084464 0 0 0
392 60 1 0.0 8.6923551463 16.9357263238 13.7706905789 0 0 0
393 92 1 0.0 7.0330318438 13.5405901243 13.0615694394 1 0 0
394 60 1 0.0 6.2353392505 15.7647751763 16.6256535759 0 0 0
395 24 1 0.0 10.3690795104 14.2257857932 14.1784943422 0 0 0
396 95 1 0.0 14.9081170244 13.5601160375 13.4504967988 0 0 0
397 19 1 0.0 13.7336943235 13.1895976891 16.7791244364 0 0 0
398 19 1 0.0 11.1535153096 15.0188537868 16.847210762 0 0 0
399 17 1 0.0 17.5038529247 12.0375284787 14.0005190966 0 -1 0
400 95 1 0.0 15.3618874412 16.3704188418 14.2245167779 0 0 0
401 19 1 0.0 13.4552455322 15.5588694397 16.5454709785 0 0 0
402 57 1 0.0 19.4884718735 16.9416408241 17.2142827377 0 0 0
403 57 1 0.0 17.5515173284 15.1221230461 15.976824982 0 0 0
404 95 1 0.0 17.8216806394 18.1931579075 13.2326706254 0 0 0
405 57 1 0.0 19.2706751228 12.4885990657 16.8110069738 0 -1 0
406 17 1 0.0 20.1059112573 12.5292414546 13.9758953234 0 -1 0
407 42 1 0.0 23.5903696926 13.5417963434 14.0338071206 0 0 0
408 57 1 0.0 22.0364307801 14.0168854894 16.7917194963 0 -1 0
409 57 1 0.0 21.7159035806 16.0188045087 17.0981104064 0 0 0
410 40 1 0.0 20.3455516105 16.7587549261 13.952991494 -1 0 0
411 67 1 0.0 23.4220198677 16.7618041327 14.6964059271 0 0 0
412 68 1 0.0 28.4187095178 16.9000751725 12.1819327913 0 0 0
413 67 1 0.0 25.1729959151 12.6079570513 16.8293679473 0 0 0
414 74 1 0.0 0.5930664047 15.343236573 16.9511047494 1 0 0
415 94 1 0.0 28.2580443035 12.7685935121 16.8452661661 -1 -1 0
416 68 1 0.0 25.292746645 15.9389546099 17.0246749518 0 0 0
417 69 1 0.0 26.7603662704 14.8464247819 14.2795614379 -1 -1 0
418 69 1 0.0 27.7462952597 17.190707656 15.5453160987 -1 -1 0
419 97 1 0.0 3.3473103716 18.6680968306 14.7400326432 0 -1 0
420 97 1 0.0 4.6783780413 18.5169387534 16.3798474925 0 -1 0
421 47 1 0.0 1.4311406398 21.1701807075 16.7500142412 1 -1 0
422 47 1 0.0 3.0188866926 22.0100005853 13.7905831337 0 -1 0
423 97 1 0.0 5.3934605759 20.8077323371 16.728352738 0 -1 0
424 27 1 0.0 0.0917407796 23.0006583599 14.8173481701 1 -1 0
425 46 1 0.0 2.6339825801 23.8707399295 16.5045485338 1 -1 0
426 46 1 0.0 5.150671392 24.4126102452 17.2916586894 1 0 0
427 61 1 0.0 9.5146152869 19.0417178014 17.0138591396 0 -1 0
428 61 1 0.0 10.4920725059 22.292769138 12.3179937522 0 -1 0
429 61 1 0.0 7.9645826612 21.0728128259 14.6442056579 0 -1 0
430 82 1 0.0 8.4819538195 23.2830617542 16.5859983937 0 -1 0
431 61 1 0.0 11.6823828188 18.4768141927 16.8731982902 0 -1 0
432 32 1 0.0 11.7923005796 21.7386259553 15.0943198172 0 -1 0
433 61 1 0.0 13.2151738811 20.1113468962 13.0429806679 0 0 0
434 12 1 0.0 11.9181616439 17.1729620446 14.2685024759 0 0 0
435 32 1 0.0 11.4903500122 23.0479262108 16.861400329 0 -1 0
436 44 1 0.0 15.6927010981 23.8494807236 16.7960846256 0 -1 0
437 44 1 0.0 14.5103038261 20.4795163026 16.3995071035 0 0 0
438 44 1 0.0 16.2480510887 20.2452138083 16.7902098397 0 0 0
439 33 1 0.0 17.7461354566 21.1140989169 13.6931079224 0 -1 0
440 33 1 0.0 15.3588059917 22.6854865377 13.0440827287 0 -1 0
441 40 1 0.0 21.5928177975 19.2110074524 17.0283411108 0 0 0
442 83 1 0.0 18.7928626587 22.0342962757 16.6715427593 1 -1 0
443 40 1 0.0 20.4914076223 18.9151542357 14.0547972736 -1 0 0
444 40 1 0.0 21.2809698193 21.0560913578 14.3783188717 -1 0 0
445 40 1 0.0 21.4121996463 19.6180797493 16.5466969489 -1 0 0
446 68 1 0.0 24.1974336445 19.6856611854 13.710976857 -1 0 0
447 16 1 0.0 22.8541252127 23.5519563275 14.1353463085 0 0 0
448 83 1 0.0 22.3672826248 23.1282266586 16.8763198426 0 -1 0
449 69 1 0.0 28.0098524853 19.6686287455 13.7629847503 -1 -1 0
450 27 1 0.0 28.8527417537 21.916359423 11.1772428864 -1 0 0
451 47 1 0.0 29.4883806863 20.3306625838 16.7667816681 0 -1 0
452 68 1 0.0 24.8592602326 19.2182519408 16.7618940306 0 0 0
453 7 1 0.0 27.2597280289 22.5425459161 13.6159322993 0 0 0
454 7 1 0.0 26.3516887561 21.8278382011 16.6852010537 0 -1 0
455 7 1 0.0 26.3368587195 22.3374564199 16.7775576693 -1 0 0
456 7 1 0.0 26.3290651529 23.2517233142 13.7737764376 0 -1 0
457 27 1 0.0 28.922736724 24.074472526 15.9546514885 0 -1 0
458 51 1 0.0 5.9167509863 23.7346702422 12.1505689235 1 -1 0
459 46 1 0.0 4.6551384536 27.9894050219 13.4736948337 1 -1 0
460 30 1 0.0 29.8862660438 28.789648836 13.9931316644 -1 -1 0
461 46 1 0.0 2.4240766847 25.0900493906 13.8570609795 1 -1 0
462 30 1 0.0 4.1304820171 27.8496238229 16.9352111281 0 -1 0
463 30 1 0.0 2.5492160342 27.1527963808 16.8408885686 0 -1 0
464 46 1 0.0 6.4237920426 24.9863488515 15.4836343253 1 0 0
465 82 1 0.0 9.6808027354 26.2521979783 16.5003651078 1 -1 0
466 82 1 0.0 7.7532846001 28.3701640619 16.5962548827 1 -1 0
467 82 1 0.0 10.5144200584 28.002142441 16.830870927 0 -1 0
468 82 1 0.0 8.881936796 29.185411937 16.8695728483 1 -1 0
469 51 1 0.0 7.7397036818 26.8250149396 13.3696299741 1 -1 0
470 48 1 0.0 11.5096128859 26.5241595674 13.7966828441 0 0 0
471 32 1 0.0 13.0551194178 26.5027629659 16.5892342065 0 -1 0
472 44 1 0.0 14.8192435535 23.5340638361 16.6127250403 0 0 0
473 81 1 0.0 16.1783811886 26.8387188065 17.0993998987 0 -1 0
474 48 1 0.0 14.2360033291 26.653343628 13.3620333344 1 0 0
475 81 1 0.0 15.1220868619 0.1709791685 16.7304304992 0 0 0
476 32 1 0.0 17.1458055937 26.836413718 14.3090959333 0 -1 0
477 83 1 0.0 21.1916810994 25.8889621449 14.3959996625 -2 0 0
478 9 1 0.0 18.6490587726 28.8116016308 12.7135430732 0 0 0
479 83 1 0.0 21.5924219836 27.0194691479 14.6421161868 -1 0 0
480 88 1 0.0 22.186131949 0.388547729 16.9803764892 -2 0 0
481 32 1 0.0 18.4435566724 24.0019243827 13.4954027069 0 -1 0
482 36 1 0.0 18.6462552052 29.6437730268 16.5305532657 0 -1 0
483 83 1 0.0 22.6746840812 26.8550366689 15.4806365767 0 0 0
484 44 1 0.0 18.9590097 25.5902983645 17.0271653695 0 0 0
485 16 1 0.0 26.6246652581 28.9943782311 15.0667187269 0 -1 0
486 7 1 0.0 25.9873956483 24.8138063892 16.499970479 -1 0 0
487 85 1 0.0 28.7200863222 0.2728361266 17.1050502858 -1 0 0
488 85 1 0.0 29.1725568877 27.0721025182 16.6776673058 -1 -1 0
489 16 1 0.0 25.440609219 27.6187421838 16.8323183779 0 0 0