# LAMMPS data file written by OVITO Pro 3.7.4
492 atoms
410 bonds
328 angles
246 dihedrals
1 atom types
1 bond types
1 angle types
1 dihedral types
0.0 30.0 xlo xhi
0.0 30.0 ylo yhi
0.0 25.0 zlo zhi

Atoms  # full

1 81 1 0.0 4.1931409176 3.163507095 4.0817661952 0 2 0
2 1 1 0.0 1.3159033284 4.4524491058 3.4772162011 0 1 0
3 1 1 0.0 1.6735039283 1.5674053277 3.2322880714 0 0 0
4 11 1 0.0 0.8459423874 3.8083744441 7.4649805114 -1 1 0
5 46 1 0.0 9.0591814057 0.9382023061 3.0063559009 0 1 0
6 72 1 0.0 11.2806936531 4.6370102199 3.5852035871 0 1 0
7 46 1 0.0 7.5279923976 5.3512574917 3.1098061055 1 1 0
8 81 1 0.0 6.009193609 2.3167278832 6.3130298632 0 1 0
9 72 1 0.0 11.7250294139 3.8805930357 4.5987647473 0 1 0
10 46 1 0.0 11.3708134447 0.417675775 3.2527688908 0 1 0
11 46 1 0.0 7.6819060752 4.0039511223 4.1706989852 1 1 0
12 72 1 0.0 13.6818666528 5.7071483995 3.1923891529 0 1 0
13 72 1 0.0 14.4830700099 5.4180566307 3.4695067341 0 1 0
14 18 1 0.0 16.5989023285 1.8266329878 3.4288252699 0 1 0
15 18 1 0.0 17.5679494249 5.9645558668 3.5156610716 0 1 0
16 71 1 0.0 13.6131506144 29.1306988093 6.0000686061 0 0 0
17 18 1 0.0 17.4486634068 0.8592510863 5.9273576561 0 1 0
18 73 1 0.0 22.6852419175 2.070815631 2.81243519 0 1 0
19 73 1 0.0 22.1059203386 4.4774121888 3.0148169214 -1 0 0
20 73 1 0.0 25.0676724183 2.3688718096 5.0350670892 -1 0 0
21 73 1 0.0 20.0153703869 1.8166589875 3.9807550957 0 1 0
22 73 1 0.0 19.9113937712 3.4171394141 3.1966292723 -1 0 0
23 1 1 0.0 0.7977531548 1.1445797774 3.2570925362 0 0 0
24 24 1 0.0 25.2105766091 0.0707122788 2.9610337864 0 1 0
25 1 1 0.0 28.3093906193 4.8824055482 6.360486566 -1 0 0
26 24 1 0.0 28.2959219756 3.0857743928 3.1934700645 -1 1 0
27 24 1 0.0 26.6682871601 3.8062144103 2.9374331067 0 1 0
28 24 1 0.0 27.4382067104 0.4000677075 3.3486480736 -1 1 0
29 29 1 0.0 25.08725588 4.2478682783 7.5461117144 -1 0 0
30 48 1 0.0 5.1329670862 5.6419510231 5.3227613344 0 1 0
31 48 1 0.0 4.6965249988 6.6717813711 3.1387821612 0 1 0
32 48 1 0.0 3.5973189511 8.3348523811 3.1485663111 0 1 0
33 48 1 0.0 3.8527035193 8.6605761894 4.2982809111 0 1 0
34 54 1 0.0 0.5877990545 9.9331194277 3.2561472594 0 0 0
35 54 1 0.0 29.9182227236 10.8901801155 4.1396515337 -1 0 0
36 49 1 0.0 28.5259672846 6.1207838894 3.290498363 -1 1 0
37 59 1 0.0 2.8968256601 11.7777695204 4.3209200318 -1 0 0
38 31 1 0.0 7.0435332364 8.5932854556 3.1089212873 0 1 0
39 31 1 0.0 6.7446910805 10.611413311 3.6529074613 0 0 0
40 46 1 0.0 9.076612119 6.6612194646 5.5485886159 1 1 0
41 31 1 0.0 10.2490216335 13.0177696101 3.3112974527 0 0 0
42 31 1 0.0 10.6603573046 8.6506846545 3.2154231422 0 0 0
43 31 1 0.0 8.9200173685 12.6915671153 3.1769138585 0 1 0
44 59 1 0.0 4.8674762274 13.2187994618 5.3361029855 -1 0 0
45 53 1 0.0 15.1471953191 8.4804781332 4.5974198274 -1 0 0
46 31 1 0.0 12.6836965054 9.6184867372 3.2417206581 0 0 0
47 19 1 0.0 11.1389871758 11.6054493263 6.321984426 0 1 0
48 53 1 0.0 15.0057968129 8.974357946 5.1246600311 -1 0 0
49 18 1 0.0 16.5737607726 7.4040381475 7.4943453964 0 2 0
50 10 1 0.0 13.8608168708 12.8646930358 2.7834660175 -1 1 0
51 51 1 0.0 18.1692963735 9.2867009628 2.8672402145 -1 0 0
52 51 1 0.0 20.5465377944 8.1497850741 2.9495070253 -1 0 0
53 29 1 0.0 23.4544780415 7.0285435031 3.1822191216 0 0 0
54 18 1 0.0 20.7140218401 6.1409910706 5.3632127844 0 0 0
55 29 1 0.0 23.7032995514 7.4007070523 3.2201818522 0 0 0
56 51 1 0.0 21.7556856322 10.5522549835 2.8579741504 -1 0 0
57 29 1 0.0 25.293338928 6.4850583793 5.5464197456 0 0 0
58 29 1 0.0 25.7342878754 6.6067356542 4.9867215535 -1 1 0
59 49 1 0.0 26.8745315781 8.5971443411 3.0969612127 -1 0 0
60 51 1 0.0 25.1190204849 11.4985922819 3.1109634779 -1 0 0
61 49 1 0.0 26.8211678622 9.9652822858 5.9945484144 -1 0 0
62 59 1 0.0 2.8379344497 12.2796294674 2.9828788179 -1 0 0
63 4 1 0.0 0.9483776052 17.4120385644 3.3229352993 0 0 0
64 4 1 0.0 0.0938906127 15.927604227 6.0030061524 0 0 0
65 4 1 0.0 4.2631074309 18.1549976046 3.8106358427 -1 0 0
66 59 1 0.0 3.4865042563 15.1147786127 3.7647531441 0 0 0
67 59 1 0.0 6.0081333998 13.859579517 3.1897345706 -1 0 0
68 54 1 0.0 7.7707799147 14.0913002371 5.5520115683 0 0 0
69 32 1 0.0 9.3502449884 15.9187384331 2.9760905438 0 0 0
70 10 1 0.0 12.2235827135 15.7048639036 3.1512083967 -2 1 0
71 10 1 0.0 16.524942874 12.5557639896 2.7580678875 -1 0 0
72 12 1 0.0 17.5242101751 10.5859048032 6.4710475079 -1 1 0
73 10 1 0.0 17.4524447002 17.0389974767 3.1790889487 0 0 0
74 10 1 0.0 15.3460250766 16.7599001074 3.0353931347 0 0 0
75 32 1 0.0 12.6395897092 18.7785292926 3.1455853927 0 0 0
76 10 1 0.0 18.0482040033 14.9541885835 3.0132843716 -1 0 0
77 51 1 0.0 19.6520403955 12.4382508299 3.5209332578 -1 0 0
78 51 1 0.0 23.3860183629 13.5175798303 3.1049631744 -1 0 0
79 42 1 0.0 20.8497701108 16.0853523631 3.2158409708 1 0 0
80 61 1 0.0 22.6232839836 12.5543678916 7.7778912477 0 0 0
81 69 1 0.0 19.2601500918 17.2390860645 5.5075160189 0 0 0
82 65 1 0.0 28.1560813483 13.3505669264 3.1141297827 -1 0 0
83 65 1 0.0 26.1354554353 14.659164835 3.0183929447 -1 1 0
84 65 1 0.0 27.7360690618 18.0146639508 3.0021020457 -1 0 0
85 80 1 0.0 23.6481502217 15.4480126936 6.0162804516 -1 1 0
86 61 1 0.0 27.1146063059 16.0620784405 5.960236963 0 0 0
87 79 1 0.0 2.4992738465 21.1213471158 3.5938783477 0 0 0
88 3 1 0.0 2.084206328 24.53118618 3.1786583657 0 0 0
89 65 1 0.0 28.8556165776 19.973907723 3.0542606111 -1 0 0
90 79 1 0.0 4.0125642045 21.099009847 5.3646761997 0 0 0
91 32 1 0.0 6.8434061886 16.6504316406 3.471739644 0 0 0
92 27 1 0.0 6.3941820782 23.0209080587 5.4320095536 0 0 0
93 78 1 0.0 7.6460059459 20.5882825218 3.6669436732 0 0 0
94 78 1 0.0 9.3179164025 20.4335904791 3.1045795427 0 0 0
95 78 1 0.0 9.4349932379 23.4138309146 2.9331514872 0 0 0
96 78 1 0.0 11.0227339519 22.6592202753 3.466686425 0 0 0
97 32 1 0.0 12.7471517694 21.3059620414 5.9358342737 0 0 0
98 42 1 0.0 15.4544594043 19.8644463915 3.1170172735 1 0 0
99 78 1 0.0 14.4353184321 18.2392673551 5.8163643439 -1 0 0
100 35 1 0.0 14.5178557098 23.8594509143 3.0014531549 0 0 0
101 32 1 0.0 16.5787119251 22.3729084555 5.9031508233 0 0 0
102 42 1 0.0 20.4768117699 19.6303190518 3.9800004576 0 0 0
103 42 1 0.0 19.9392654063 18.9234112111 3.1904231376 1 0 0
104 33 1 0.0 23.2756088724 20.8726715615 3.6322984527 -1 0 0
105 42 1 0.0 22.1160737703 19.8058678647 6.286158847 0 0 0
106 42 1 0.0 22.3191873242 19.1718127956 6.2460190588 0 0 0
107 33 1 0.0 25.5145977326 22.9845613346 3.9487286971 -1 0 0
108 32 1 0.0 17.8297816532 21.4285195199 3.1675815785 0 0 0
109 80 1 0.0 23.8925030166 17.6385748934 4.1952148882 -1 0 0
110 80 1 0.0 26.8617069137 20.2566052855 5.8256772354 -1 0 0
111 33 1 0.0 29.586212417 23.1167564799 3.4706896553 -1 0 0
112 33 1 0.0 25.504208896 20.2848760255 2.9792110913 -1 0 0
113 61 1 0.0 25.2916265957 17.6953701512 7.1384036215 0 0 0
114 33 1 0.0 26.0178313962 22.4415394174 3.1696893218 -1 0 0
115 80 1 0.0 28.7492492827 17.7220085975 7.9438693606 0 1 0
116 3 1 0.0 2.9089914977 23.9480743321 6.0965990531 0 0 0
117 81 1 0.0 2.8730726591 28.7422634124 2.9485318306 0 0 0
118 81 1 0.0 4.5791833207 27.3518084134 3.2215031659 0 0 0
119 81 1 0.0 5.9924027347 28.3617682011 3.1937114345 0 0 0
120 81 1 0.0 5.5613614464 0.158111401 3.0104550361 0 1 0
121 3 1 0.0 1.9265731522 27.1344244709 5.2043338801 0 0 0
122 57 1 0.0 3.0272447999 0.1022734265 7.3035111605 0 0 0
123 27 1 0.0 5.9344647138 24.3797344732 3.6738947577 0 0 0
124 27 1 0.0 8.5722528846 26.3772698475 3.0135091539 0 0 0
125 27 1 0.0 9.6007659679 26.564765826 3.335016391 0 0 0
126 37 1 0.0 7.1184015823 28.7543652759 5.6945200802 0 0 0
127 27 1 0.0 8.9484655844 24.9463409596 5.6926750635 0 0 0
128 37 1 0.0 5.8489082421 29.0525970266 6.6762663329 0 0 0
129 77 1 0.0 17.5371905202 29.2391403662 3.1762107351 0 -1 0
130 71 1 0.0 14.0567576878 28.8492285112 3.7684860277 0 0 0
131 71 1 0.0 13.5462402089 26.6280524248 3.3309439875 0 0 0
132 71 1 0.0 14.1186700994 24.1690620675 6.6984999462 -1 0 0
133 77 1 0.0 15.3978691477 26.4321020211 5.6448146165 0 0 0
134 35 1 0.0 17.2432542213 25.5906067429 3.0336283409 0 0 0
135 27 1 0.0 11.2804220911 26.495829046 5.9477603171 0 0 0
136 47 1 0.0 19.5231446438 23.9987339822 4.7275756435 0 0 0
137 47 1 0.0 20.9396856694 28.3416853002 3.0047982946 0 1 0
138 47 1 0.0 22.3559216416 28.965433894 2.8995441228 0 0 0
139 47 1 0.0 21.9198403688 26.0263688446 3.3491122228 0 1 0
140 47 1 0.0 24.1239157155 25.8607061873 3.2864482708 0 0 0
141 47 1 0.0 20.8448054997 23.0970134014 3.5352441781 0 0 0
142 33 1 0.0 28.455634591 24.3913236015 2.949545061 -1 0 0
143 11 1 0.0 29.2566871224 29.1978750172 6.0824224477 -1 0 0
144 24 1 0.0 29.2261030616 27.423748613 3.4455857296 0 0 0
145 24 1 0.0 27.4220190105 27.2676466915 3.4788134767 0 0 0
146 3 1 0.0 27.9603316163 25.0495977066 5.7324121447 -1 0 0
147 11 1 0.0 4.1266725736 2.5569105812 8.8646453832 -1 1 0
148 40 1 0.0 2.073409062 3.5200548231 11.5412307503 1 1 0
149 11 1 0.0 3.7934888011 0.1204849321 10.7058471065 -1 1 0
150 40 1 0.0 5.1744927657 5.0871780132 11.4667460552 1 1 0
151 8 1 0.0 2.4207043465 29.7270900443 13.7171161877 0 0 0
152 57 1 0.0 0.8837884636 1.0799878037 9.2566153919 0 1 0
153 37 1 0.0 8.8113789674 1.2723481569 7.0696530477 0 1 0
154 37 1 0.0 7.4735701011 4.4476725005 9.4016329141 0 1 0
155 37 1 0.0 10.8623051014 3.9650449438 7.8528140274 -1 1 0
156 20 1 0.0 5.4844039959 3.1824583762 14.0387974224 0 1 0
157 74 1 0.0 11.0191316135 2.9425211427 11.3815438242 0 1 0
158 50 1 0.0 7.6786889287 7.0474749528 11.7499996366 0 1 0
159 20 1 0.0 8.6535211321 3.1162420025 13.0459492698 0 1 0
160 20 1 0.0 9.9181333546 29.9403499337 10.8703888298 0 0 0
161 53 1 0.0 14.2813406127 2.3280697653 5.5114788486 -1 0 0
162 53 1 0.0 12.3324678385 6.4034913421 5.9978146312 -1 0 0
163 35 1 0.0 15.2555755013 28.958617513 9.8875937283 0 0 0
164 6 1 0.0 18.0281587989 5.1810228163 9.0550360199 -1 0 0
165 6 1 0.0 17.2883193687 2.6331616707 9.9227937015 -1 1 0
166 35 1 0.0 14.1686507175 2.2929063687 8.9715276399 0 1 0
167 72 1 0.0 16.1485238206 4.844996518 5.9716067721 0 1 0
168 6 1 0.0 19.7108103926 1.1858126981 10.4613450455 0 1 0
169 71 1 0.0 11.0484316916 29.3685273263 7.852752371 -1 0 0
170 73 1 0.0 23.3607876508 0.883303624 6.8593179476 -1 0 0
171 52 1 0.0 22.7552881554 0.3363641106 9.878779345 -1 0 0
172 6 1 0.0 23.2263817184 3.2814285609 10.4383607728 0 1 0
173 52 1 0.0 26.0926869697 0.5011552314 8.7939219403 -2 0 0
174 18 1 0.0 18.7278111545 2.1150176156 7.4386386834 0 1 0
175 6 1 0.0 21.3529938589 5.6694520077 8.4157619113 -1 1 0
176 49 1 0.0 28.1802080758 1.932302588 6.7186987175 -1 0 0
177 49 1 0.0 28.3173056046 4.9606359751 9.9190828334 -1 0 0
178 52 1 0.0 26.7377011777 2.1662810028 9.5098600451 -1 0 0
179 8 1 0.0 29.7016669488 1.3406794588 12.5188420647 -1 0 0
180 5 1 0.0 26.2565000336 6.6472635351 12.0428940658 0 0 0
181 1 1 0.0 1.3193178511 6.7053126781 4.8265729841 0 1 0
182 1 1 0.0 29.431386073 6.7224972704 6.519910643 -1 0 0
183 50 1 0.0 6.1613467568 7.5480862978 13.6862133302 0 1 0
184 48 1 0.0 1.5112116989 9.0159237646 6.9715770758 1 1 0
185 48 1 0.0 3.5299024008 6.7257439959 7.6225114348 0 1 0
186 60 1 0.0 2.3589448985 6.6938167264 10.4627070265 0 1 0
187 23 1 0.0 4.5800004031 11.1910450848 8.45934403 0 1 0
188 60 1 0.0 4.137295697 8.9213898391 10.7973652869 0 1 0
189 5 1 0.0 29.4521346751 7.9837754023 10.9079618692 0 1 0
190 46 1 0.0 8.5766043568 5.111643183 6.5418158586 1 1 0
191 23 1 0.0 6.9200764297 7.5336180201 8.5965783536 0 1 0
192 53 1 0.0 10.8820842487 8.6531278613 7.9775808888 -1 0 0
193 19 1 0.0 7.8226004607 10.4381884976 6.8873118765 0 1 0
194 25 1 0.0 9.2434317413 9.9846257418 10.9779000113 -1 0 0
195 25 1 0.0 11.9657450609 11.4077135721 12.6113884699 -1 0 0
196 19 1 0.0 10.8215355637 12.2928135084 8.8535710771 0 1 0
197 74 1 0.0 10.0645249491 6.2455679458 9.7562138376 0 0 0
198 53 1 0.0 13.659634774 6.22539532 7.7355935422 -1 0 0
199 19 1 0.0 14.3315953425 10.396598983 8.0527505896 1 1 0
200 72 1 0.0 14.6153014582 4.6402486156 10.8852495602 0 0 0
201 56 1 0.0 17.1420355765 7.9191324437 10.458368168 0 0 0
202 19 1 0.0 13.2341503991 11.6484035436 8.6117146992 0 1 0
203 56 1 0.0 16.5651339736 11.2418846954 10.2064043745 0 0 0
204 12 1 0.0 25.2914342661 12.9859531717 5.8843316829 -1 1 0
205 29 1 0.0 21.5989067005 3.2029466821 6.8887157139 -1 1 0
206 12 1 0.0 23.6351927077 9.9320195977 6.3101025283 -1 1 0
207 26 1 0.0 24.2958903588 8.9505702199 12.9916038411 -1 0 0
208 7 1 0.0 21.8811697842 8.8740837929 10.910009974 0 0 0
209 5 1 0.0 23.9629847982 7.341131257 8.2880182671 -1 0 0
210 5 1 0.0 23.78204982 6.1139950649 10.3548190141 -1 0 0
211 12 1 0.0 21.2619879471 9.2093282439 7.7172651212 -1 1 0
212 5 1 0.0 25.2196012575 10.7937644236 8.9797579172 -1 0 0
213 58 1 0.0 1.3014170782 10.0597363632 10.0513297094 0 0 0
214 49 1 0.0 27.6670805243 8.1801821023 8.7463780262 -1 0 0
215 44 1 0.0 26.6188983946 10.1319222745 11.4289930033 0 1 0
216 65 1 0.0 0.3796192092 14.2687426666 2.9551273125 0 0 0
217 54 1 0.0 2.0730315443 13.5115873911 7.2077545663 0 0 0
218 4 1 0.0 6.0159842043 17.1434072532 6.5837813022 -1 0 0
219 22 1 0.0 0.6005688336 14.6478610453 9.6462520411 0 1 0
220 4 1 0.0 3.8160014403 17.3538793547 9.0557649291 -1 0 0
221 23 1 0.0 5.2152159185 14.7196260578 12.0446552366 0 1 0
222 4 1 0.0 1.9671221002 16.7107532451 8.2160963075 -1 0 0
223 59 1 0.0 3.4123690851 15.3667337092 5.4357812403 0 -1 0
224 78 1 0.0 9.7496758318 17.8047392015 5.2449967614 0 0 0
225 54 1 0.0 6.0416598989 15.2377232695 8.804181141 0 0 0
226 50 1 0.0 7.8540757953 13.1991698467 11.0129231838 0 0 0
227 54 1 0.0 8.0648675302 14.1308786745 7.1476908329 0 0 0
228 34 1 0.0 7.05159915 18.169947994 10.9342602058 0 1 0
229 34 1 0.0 8.5158584935 18.6235465719 9.5490567415 0 1 0
230 17 1 0.0 9.9046816705 15.7976293315 9.5210041299 0 0 0
231 41 1 0.0 13.536065188 14.1916650022 7.2469167283 -1 -1 0
232 19 1 0.0 11.3943855577 11.1240294199 5.6258226126 0 1 0
233 41 1 0.0 14.7538241231 12.3222776985 5.3925348448 0 0 0
234 41 1 0.0 11.6978901264 14.6445832542 6.0514648916 0 0 0
235 12 1 0.0 15.4147594927 16.0134337916 8.7687704618 -1 0 0
236 41 1 0.0 19.3897148408 13.0408797278 7.4046648283 0 0 0
237 12 1 0.0 17.0030530534 14.4278375321 5.6436569712 0 1 0
238 17 1 0.0 12.0091699918 15.2729824688 10.2732007076 0 0 0
239 69 1 0.0 20.1269252238 16.3610039815 7.147216466 0 0 0
240 9 1 0.0 19.2572342168 12.3866590096 10.4737804525 0 0 0
241 44 1 0.0 22.8001347544 17.8938224473 12.9253371954 -1 0 0
242 9 1 0.0 18.4318469603 14.8247569335 10.1272190575 0 0 0
243 61 1 0.0 22.6703701774 13.8687798171 9.6403730724 0 0 0
244 22 1 0.0 28.2233265275 16.4506192118 11.4607999045 -1 2 0
245 26 1 0.0 26.8788864205 13.1169670291 12.9261008586 -1 0 0
246 58 1 0.0 29.3109089389 12.0534290355 11.0262595272 -1 0 0
247 80 1 0.0 25.6358519795 15.2706539598 9.4886383211 0 1 0
248 61 1 0.0 27.4732083353 13.6254038763 8.0102912166 -1 0 0
249 23 1 0.0 2.1056519545 12.788901938 12.6989856208 0 1 0
250 79 1 0.0 2.2556994348 21.1088077446 7.1659097094 0 1 0
251 79 1 0.0 29.9380764 21.5766425139 6.5712171401 -1 0 0
252 65 1 0.0 1.6045561011 18.5866088479 5.6633038475 1 0 0
253 34 1 0.0 5.5596200144 22.6569142265 10.0339760515 0 0 0
254 79 1 0.0 29.483348834 19.7817232683 10.4432211356 -1 0 0
255 67 1 0.0 2.5368917782 21.8725850092 10.8087082172 0 0 0
256 79 1 0.0 0.4888116211 18.6024596443 10.8200307759 0 1 0
257 76 1 0.0 9.2038700273 22.0091872184 6.1106886066 0 0 0
258 76 1 0.0 5.9775079637 20.0676200273 8.3929515463 0 0 0
259 76 1 0.0 11.6163542828 18.4865200118 10.9903444776 -1 0 0
260 34 1 0.0 7.5907110223 23.4344336337 8.9008399011 0 0 0
261 34 1 0.0 9.9162057662 21.5738794186 9.7822648598 1 0 0
262 76 1 0.0 11.0500823133 23.7192842277 7.3604241315 0 0 0
263 36 1 0.0 14.4519342787 16.7465314549 11.5613952588 0 0 0
264 41 1 0.0 11.675290052 17.8908202711 7.7794632781 0 0 0
265 41 1 0.0 12.964337247 17.3681307514 8.1734017695 0 0 0
266 69 1 0.0 19.1760738823 17.5550549179 7.8593963478 0 0 0
267 43 1 0.0 18.5069428549 21.6519097178 10.486179393 0 0 0
268 82 1 0.0 11.2820353663 23.8824523417 11.491668702 0 1 0
269 9 1 0.0 17.0042599016 18.4481566695 10.9906685209 -1 0 0
270 69 1 0.0 17.2878125636 18.5226836613 6.8860449717 0 -1 0
271 28 1 0.0 21.0036277514 20.5462669533 9.8222609688 0 0 0
272 61 1 0.0 22.7825310364 16.25611164 9.5669351915 0 0 0
273 28 1 0.0 23.1512883385 20.2053279873 9.722687314 0 0 0
274 69 1 0.0 19.6186335874 21.3170785425 6.4573610598 0 0 0
275 69 1 0.0 23.9206264059 22.5281058572 6.4228011837 0 0 0
276 21 1 0.0 29.6307121323 22.6580396362 11.5005028472 0 1 0
277 80 1 0.0 26.6618008444 20.521595153 9.7463376979 -1 1 0
278 28 1 0.0 24.4891829905 18.5708534412 10.5480957029 0 0 0
279 21 1 0.0 0.4314090719 23.3287614793 9.6077237131 1 1 0
280 22 1 0.0 27.5957339045 19.0386816219 12.6866263693 -1 1 0
281 11 1 0.0 2.0727877626 27.6677471734 10.8370234881 -1 0 0
282 3 1 0.0 3.3288162876 26.5314191339 6.5479583947 0 0 0
283 21 1 0.0 3.1679657351 24.5372211041 9.2931356168 0 1 0
284 20 1 0.0 8.7032725595 0.2871265652 14.4554299857 -1 1 0
285 37 1 0.0 7.6300376743 1.6050078697 9.346991501 -1 1 0
286 57 1 0.0 5.4072299216 26.7250238977 9.0967334814 0 0 0
287 68 1 0.0 7.9144286309 28.2271942908 9.4273297613 1 0 0
288 20 1 0.0 7.7548461044 29.0609562491 13.2156247908 0 0 0
289 68 1 0.0 7.6967221271 25.7394616656 11.0158856959 1 -1 0
290 35 1 0.0 17.8943845052 27.9024509763 9.3745363195 0 0 0
291 77 1 0.0 18.0228636655 24.2585108813 7.6676578238 0 0 0
292 71 1 0.0 12.5965658599 25.9545977711 9.5030645617 -1 0 0
293 82 1 0.0 11.68280114 28.0638668685 11.9223321749 0 0 0
294 43 1 0.0 18.5112783055 25.105135728 10.708566524 0 0 0
295 35 1 0.0 19.4656821318 26.6143523245 5.8537877395 0 0 0
296 43 1 0.0 24.0908547998 23.8452046557 9.3343383766 0 0 0
297 43 1 0.0 21.3876815606 23.2723542517 8.2910694392 0 0 0
298 70 1 0.0 20.9576969153 29.5957231083 6.0244884566 -1 1 0
299 77 1 0.0 21.5979235905 26.5544878139 10.2433480363 0 0 0
300 70 1 0.0 20.2124003243 29.4938692154 7.3002222311 -1 1 0
301 75 1 0.0 24.706615848 26.8238812772 11.1690825502 0 0 0
302 11 1 0.0 0.0111670486 26.6265257879 8.1955435735 -1 0 0
303 70 1 0.0 25.0650920251 28.0142842652 6.1111646164 -1 0 0
304 57 1 0.0 28.8280048091 28.7378170554 10.4627609644 -2 0 0
305 3 1 0.0 27.5629703911 23.2333060188 8.723854054 -1 0 0
306 70 1 0.0 26.7108959843 27.1527011998 8.4461400907 -1 0 0
307 66 1 0.0 28.9686297951 25.7928460391 11.7599156284 -1 1 0
308 40 1 0.0 0.482172941 3.6483337256 14.3885677512 1 0 0
309 40 1 0.0 1.6657574659 3.5740446872 17.2223184704 1 -1 0
310 40 1 0.0 7.0094543668 6.0512997999 16.1549075958 1 1 0
311 40 1 0.0 4.7696512184 3.673899595 16.9799715726 1 1 0
312 68 1 0.0 5.4445128582 29.5318800404 14.4548537269 0 0 0
313 8 1 0.0 29.4930099596 1.4801633066 16.5791560896 -1 1 0
314 8 1 0.0 28.826929392 1.8023181457 17.0565214842 -1 1 0
315 21 1 0.0 2.0433529126 28.9208174389 16.7972707309 0 1 0
316 2 1 0.0 11.0439856978 4.9659756638 15.1750332889 0 0 0
317 2 1 0.0 9.1320282313 3.0456404246 16.5320411686 -1 0 0
318 2 1 0.0 7.6697846105 2.930558863 16.6576422927 -1 0 0
319 2 1 0.0 9.9478730454 28.6955884581 16.9480344977 -1 -1 0
320 2 1 0.0 7.095524986 1.374477184 16.9959103001 -1 0 0
321 2 1 0.0 12.2494344733 0.9239256777 16.9863494522 0 0 0
322 74 1 0.0 14.4865874933 2.6337711421 13.1018277817 0 1 0
323 74 1 0.0 13.0963912083 8.3553109692 10.0412812441 0 0 0
324 16 1 0.0 13.2155778426 4.0398779077 16.8694530106 -1 0 0
325 30 1 0.0 17.7618555171 2.9944591306 16.7706001131 0 1 0
326 74 1 0.0 16.2413489857 6.0112884745 16.3057919225 1 0 0
327 30 1 0.0 17.7107821994 3.4502730486 16.8553942779 0 1 0
328 16 1 0.0 14.1513356625 5.8537184837 13.8531530061 -1 0 0
329 16 1 0.0 14.6903095804 2.5794194074 16.7367487615 -1 0 0
330 52 1 0.0 18.5802046505 2.7542010991 13.1130685975 0 0 0
331 6 1 0.0 22.6125064437 1.4939156778 13.0454388028 0 1 0
332 30 1 0.0 21.3783100868 0.6470254439 15.9875013031 0 1 0
333 30 1 0.0 19.0792635979 2.5285662763 16.6332423755 1 1 0
334 30 1 0.0 19.6608407001 3.6724158507 16.4393851259 1 1 0
335 16 1 0.0 18.6810363484 5.6097942446 12.0140557391 -1 0 0
336 16 1 0.0 21.3831332113 4.6193873442 13.4301848637 -1 0 0
337 16 1 0.0 22.6000235392 4.6684239458 17.0942350146 -1 0 0
338 63 1 0.0 16.8575211571 0.0769925103 16.7763509992 -1 1 0
339 15 1 0.0 24.7680325583 3.9758128584 12.8665731814 0 1 0
340 15 1 0.0 24.6797111636 0.0683843292 15.7082803704 0 1 0
341 8 1 0.0 27.2904401062 2.2852851873 14.8722306103 -1 1 0
342 15 1 0.0 25.4422326993 2.9321915527 16.8963200047 0 0 0
343 15 1 0.0 24.7298511039 0.77254242 17.084602976 0 1 0
344 8 1 0.0 27.3000850086 1.5937301178 14.6619465374 -1 1 0
345 15 1 0.0 27.9435329639 5.3984950222 16.6973671895 -1 1 0
346 55 1 0.0 6.9957784871 10.8853273174 13.1145937886 0 0 0
347 60 1 0.0 3.1777256951 5.697625267 13.886692748 -1 0 0
348 55 1 0.0 4.9474493061 9.97535018 15.3891038188 0 0 0
349 60 1 0.0 3.3464862948 7.1227780757 16.7412849806 -1 0 0
350 55 1 0.0 6.4186899313 9.1417570192 17.1550522172 0 0 0
351 60 1 0.0 29.9250053389 6.6728789045 13.7048767041 -1 1 0
352 58 1 0.0 4.4291583259 12.1975158212 16.9700900908 -1 0 0
353 25 1 0.0 8.9028234722 8.8737330619 15.0106150427 0 0 0
354 25 1 0.0 9.3642108618 7.7034872611 16.7265421674 0 0 0
355 50 1 0.0 11.286686588 8.0432546274 12.7144957889 0 1 0
356 50 1 0.0 11.3524237508 10.2343837797 16.7417262043 0 1 0
357 50 1 0.0 7.1834892935 12.7138269218 16.6851297597 -1 0 0
358 56 1 0.0 15.9156087467 9.9081405697 12.7400537959 -1 0 0
359 56 1 0.0 16.2294749432 12.1161680796 12.3861166598 -1 0 0
360 25 1 0.0 11.5764329751 7.09559218 16.9357273317 0 0 0
361 56 1 0.0 17.2805810475 7.258619211 14.0628276307 0 0 0
362 25 1 0.0 13.7259696518 9.1437227769 14.687042708 0 0 0
363 74 1 0.0 14.7565493256 7.0607755669 17.1794838659 1 0 0
364 36 1 0.0 13.4710914381 12.3919265593 15.5600942237 0 0 0
365 56 1 0.0 16.2574134545 10.3211638095 16.940140729 0 0 0
366 52 1 0.0 19.5248559137 6.6603333849 16.0890770614 0 0 0
367 52 1 0.0 21.7648742261 7.3894212632 16.7584638746 0 0 0
368 7 1 0.0 20.6677165467 8.724988064 14.1869598188 0 0 0
369 7 1 0.0 22.8663778861 10.6412729207 17.0276112048 0 1 0
370 26 1 0.0 24.2990604546 7.0223607229 14.7583013206 -1 0 0
371 5 1 0.0 23.3436421617 11.594476361 12.2119431574 -1 0 0
372 58 1 0.0 2.0267441955 8.8111237208 13.9496048938 0 0 0
373 44 1 0.0 28.7156579165 10.2131628541 13.8261859109 0 1 0
374 60 1 0.0 1.3050929961 6.9778673322 16.9386459088 0 0 0
375 7 1 0.0 22.9867528939 10.4430493429 15.5054365948 0 1 0
376 26 1 0.0 25.836102051 7.8927230319 16.893810166 -1 0 0
377 26 1 0.0 27.9926777579 9.4990384764 16.7876939866 -1 0 0
378 58 1 0.0 1.2246211142 9.9587423149 16.9171525567 -1 1 0
379 15 1 0.0 27.4613289318 5.6579735514 14.8818743193 0 1 0
380 7 1 0.0 25.6737239464 11.4422771851 16.3230293734 0 1 0
381 7 1 0.0 25.2590272249 11.6462378332 16.9977805829 0 1 0
382 22 1 0.0 2.3367239084 15.2824432414 10.9412902149 0 1 0
383 23 1 0.0 2.3398830231 12.235061102 13.3883112285 0 1 0
384 58 1 0.0 1.40278694 11.9314760255 16.782344823 -1 0 0
385 55 1 0.0 6.2245257507 17.4959474264 13.7797346671 -1 0 0
386 23 1 0.0 4.8562850257 13.3466023604 14.0726458064 0 1 0
387 62 1 0.0 3.6414870192 15.5144904132 16.9992338787 0 0 0
388 62 1 0.0 5.43321047 15.4827235931 16.8712212031 1 0 0
389 17 1 0.0 9.4991101869 16.1582916786 12.4751409179 0 0 0
390 36 1 0.0 10.8851915888 14.1948023486 16.9935125292 0 1 0
391 55 1 0.0 9.0353747557 12.260842057 13.9144552238 0 0 0
392 36 1 0.0 11.147819821 15.1876629518 17.1615540411 0 1 0
393 55 1 0.0 8.544226379 15.8551975489 15.6989724629 0 0 0
394 17 1 0.0 9.6176221956 18.5856577376 14.7485544068 1 0 0
395 38 1 0.0 11.0097112515 18.324065919 17.3256310963 0 0 0
396 17 1 0.0 11.6402120954 16.8788834048 14.4028269645 0 0 0
397 36 1 0.0 13.6079343543 15.4464218836 16.5817819269 0 1 0
398 17 1 0.0 12.073187894 14.3383316871 13.370584344 0 0 0
399 36 1 0.0 15.2398654709 14.7929565268 12.3878297105 0 0 0
400 9 1 0.0 16.5187678375 12.8449013951 15.8510527766 0 0 0
401 9 1 0.0 15.7977821339 17.3575529635 14.3427288031 0 0 0
402 39 1 0.0 19.2598245479 11.8766344846 17.0849606937 0 0 0
403 9 1 0.0 18.7310319376 11.1038187791 13.3997143841 0 0 0
404 13 1 0.0 18.1466490059 15.7182071972 16.7117638032 -1 0 0
405 39 1 0.0 19.5896395323 11.3167021561 16.7511152034 0 1 0
406 28 1 0.0 20.0540073417 14.2161568185 13.3116775616 0 0 0
407 13 1 0.0 19.4705253296 14.6941983501 16.6008487071 -1 -1 0
408 39 1 0.0 22.2799232168 13.5386912346 16.6233030036 0 1 0
409 13 1 0.0 23.8470419978 18.0777987251 17.0544888064 0 -1 0
410 39 1 0.0 22.7042408673 13.9162538841 16.9566179561 0 0 0
411 28 1 0.0 23.0787428623 14.6448758164 12.6302709447 0 0 0
412 28 1 0.0 19.0504561034 16.6531259562 13.2710720859 0 0 0
413 26 1 0.0 29.2475051914 13.8448594658 13.5861177581 -2 0 0
414 44 1 0.0 28.7343027293 13.3919371017 16.7535706359 0 0 0
415 64 1 0.0 25.7799025562 16.3737364032 14.2733146843 -1 0 0
416 64 1 0.0 25.2584432254 15.4835458957 16.6022123629 -1 0 0
417 64 1 0.0 26.4965779204 15.6006100864 17.0295370187 -1 0 0
418 64 1 0.0 0.1770030423 16.863053503 13.9300849078 0 0 0
419 64 1 0.0 0.7982309845 16.1125918976 16.9007286695 0 0 0
420 22 1 0.0 0.1304089935 20.3023509494 13.7834233553 0 1 0
421 22 1 0.0 2.869250351 18.2670257259 13.5112642773 0 1 0
422 62 1 0.0 4.9554180488 18.2022175714 16.6995770094 0 0 0
423 62 1 0.0 6.7132547193 18.0235959672 16.7480385022 0 0 0
424 67 1 0.0 4.5435140138 20.5112069454 14.5239433664 0 0 0
425 62 1 0.0 2.4056150934 20.1044366219 16.9220210516 1 0 0
426 34 1 0.0 5.3580728525 19.5711255009 11.2356808711 0 0 0
427 76 1 0.0 7.1860219943 20.9245641798 13.1228812157 0 0 0
428 76 1 0.0 10.0441825347 20.7707393897 12.9476197819 0 0 0
429 38 1 0.0 11.3969739325 21.3125623472 17.0075711883 0 0 0
430 38 1 0.0 9.3580283342 22.1312935004 16.5728255139 1 0 0
431 38 1 0.0 8.8906935825 20.8943218875 16.8784259111 0 0 0
432 67 1 0.0 5.7675751378 21.5435195507 16.7976628156 0 0 0
433 82 1 0.0 11.2048873682 25.0134496514 16.6687827169 0 0 0
434 67 1 0.0 7.7995536669 23.5592734486 14.197896311 0 0 0
435 45 1 0.0 14.6930395064 20.0073732249 9.8306283307 0 0 0
436 38 1 0.0 14.0489205311 19.1227307963 16.2935550391 0 1 0
437 39 1 0.0 17.3046586764 18.3315113484 17.0125695613 1 1 0
438 82 1 0.0 11.075664209 23.3751855981 14.6395973621 0 1 0
439 38 1 0.0 12.9249783072 21.0002361931 14.3528851251 -1 1 0
440 13 1 0.0 20.5143419517 20.0685829661 12.9276089899 -2 1 0
441 43 1 0.0 19.0746134519 23.0491344245 13.4166559558 0 0 0
442 39 1 0.0 20.8859112012 18.2352841082 16.4933416762 0 1 0
443 45 1 0.0 16.264665011 21.2364690724 15.3132597808 -1 0 0
444 45 1 0.0 17.7945417061 21.496720073 17.0544846683 0 0 0
445 43 1 0.0 22.5765214646 23.934805801 12.0554954614 0 0 0
446 13 1 0.0 21.0654398463 21.2779699571 15.4578191117 0 0 0
447 13 1 0.0 22.5986037587 21.1041123109 16.8252183515 0 -1 0
448 66 1 0.0 27.4149602032 21.7230361508 14.2180428201 0 1 0
449 75 1 0.0 28.8375827328 24.2406550842 14.4629485875 0 0 0
450 75 1 0.0 25.2723296476 24.7654455106 13.2043612612 0 0 0
451 44 1 0.0 26.3999563409 18.5992424969 15.9876054877 0 0 0
452 64 1 0.0 26.81609617 15.9659900732 14.1854114924 -1 0 0
453 62 1 0.0 29.02541852 18.8803808245 16.8763009851 0 0 0
454 14 1 0.0 28.9445080842 21.8340513591 17.0309071535 -1 0 0
455 44 1 0.0 24.6251390702 19.7487662936 14.667498799 0 0 0
456 66 1 0.0 25.5038478918 21.6576054041 17.1021104062 -1 1 0
457 66 1 0.0 21.1190495587 24.9634455685 16.319124677 -1 1 0
458 57 1 0.0 3.5056980627 24.8701422382 15.253200531 0 0 0
459 57 1 0.0 5.1559788204 23.5849501944 12.7778919251 0 0 0
460 21 1 0.0 4.9220136473 26.6563249837 12.6671004411 0 1 0
461 14 1 0.0 1.6920277751 22.9735159689 16.857268509 0 0 0
462 75 1 0.0 1.3987343554 26.158614335 13.6696830803 1 0 0
463 68 1 0.0 5.0151257322 28.3824944125 16.0338100923 0 -1 0
464 14 1 0.0 0.9817783046 25.9656393038 17.2130606814 0 0 0
465 21 1 0.0 29.1239887559 28.4632626739 17.1328318809 1 1 0
466 75 1 0.0 29.8022190041 28.0348721725 13.8457796114 -1 0 0
467 20 1 0.0 11.7618862089 1.156562862 13.7067289993 -1 1 0
468 82 1 0.0 13.0885325448 26.5847895397 17.0291806346 0 0 0
469 68 1 0.0 6.8022786469 27.6038683342 16.8998729144 0 -1 0
470 68 1 0.0 9.6588213277 26.5830118564 14.5543578825 0 -1 0
471 67 1 0.0 7.4334003758 24.9076025311 16.3780951112 0 0 0
472 82 1 0.0 13.5217744108 28.7152720151 14.7774529431 0 0 0
473 67 1 0.0 6.819029827 25.4969512667 14.7871851643 0 0 0
474 45 1 0.0 14.0375359405 22.6317255931 16.7080368424 -1 0 0
475 63 1 0.0 16.750165148 28.6293160761 13.0526577891 -1 0 0
476 45 1 0.0 15.3342465113 23.4191866666 11.3891902901 0 0 0
477 63 1 0.0 14.3973407444 25.2514869983 14.1907011879 0 0 0
478 63 1 0.0 14.4226073606 26.5861535699 12.2461821063 0 0 0
479 63 1 0.0 15.8476429672 28.754852687 16.7874401222 -1 0 0
480 45 1 0.0 17.6028575687 23.8386964064 16.5782694611 0 0 0
481 77 1 0.0 19.8712497764 29.5198893221 13.0445851703 -1 0 0
482 30 1 0.0 20.7016993095 28.509830691 16.77990473 0 0 0
483 63 1 0.0 16.8908684367 29.7903197884 13.9857368331 0 0 0
484 66 1 0.0 19.5092054473 26.5887811938 13.2041701032 0 1 0
485 77 1 0.0 18.0871776229 26.9234354011 16.7647693894 -1 0 0
486 66 1 0.0 26.054490178 29.4630735062 12.6016952996 -1 0 0
487 70 1 0.0 23.8599427804 27.5581849447 14.2461584452 -1 0 0
488 14 1 0.0 27.6276946553 25.5661915843 17.3354113126 -2 0 0
489 75 1 0.0 27.2876638762 26.8683693311 14.4554729995 -1 0 0
490 14 1 0.0 24.3557717461 24.5583290263 16.9297616989 -1 0 0
491 70 1 0.0 22.348858577 27.9427485584 13.900554996 -1 0 0