# LAMMPS data file written by OVITO Pro 3.7.4
490 atoms
1 atom types
0 bonds
1 bond types
0 angles
1 angle types
0 dihedrals
1 dihedral types

0.0 30.0 xlo xhi
0.0 30.0 ylo yhi
0.0 25.0 zlo zhi

Atoms  # full

1 184 1 0.0 3.7958684005 1.0714595942 3.0142540244 0 -3 0
2 75 1 0.0 0.8668029041 2.0715336091 3.2023533447 1 0 0
3 285 1 0.0 3.8129292028 3.9162387307 4.3090247614 0 -1 0
4 360 1 0.0 6.7582465632 4.8505073111 5.0162250208 -1 -1 0
5 18 1 0.0 6.8177791915 2.6910147624 2.9708796039 -3 0 0
6 427 1 0.0 9.580248127 2.311576782 5.0469585532 0 0 0
7 133 1 0.0 9.4543502331 4.8812085818 3.120423007 0 -2 0
8 292 1 0.0 16.2822054021 1.2504515939 5.2341350893 -1 -1 0
9 341 1 0.0 16.4592643856 3.4852307125 2.9916512126 -1 0 0
10 45 1 0.0 12.5609028139 3.7262144325 2.9495224841 -2 -3 0
11 57 1 0.0 13.0707536735 1.4456450985 4.9124961783 -3 -2 0
12 36 1 0.0 15.0222536209 4.1938932515 5.795958916 -5 -2 0
13 63 1 0.0 18.9996573274 3.3756441316 4.8052624257 -3 1 0
14 2 1 0.0 22.4160443271 3.7078801696 5.4319414359 -1 -1 0
15 263 1 0.0 27.7598771335 2.5534989398 3.0828581949 0 -4 0
16 424 1 0.0 25.9847277018 3.8160958513 5.6109199337 -1 0 0
17 434 1 0.0 25.422684531 0.4560169139 3.141318303 -2 0 0
18 218 1 0.0 29.2227738313 4.6061530981 5.0516669801 -2 -1 0
19 295 1 0.0 24.4932805414 3.3507855356 2.9457608909 -3 0 0
20 17 1 0.0 27.0126339555 5.6226229912 3.0431887757 -2 0 0
21 414 1 0.0 4.6149130276 6.9177598296 3.2022018384 0 2 0
22 319 1 0.0 2.2457883019 7.0128102272 5.7874648442 -1 -3 0
23 52 1 0.0 1.4267021623 5.7206660808 2.9843213439 -2 -2 0
24 175 1 0.0 1.3962789228 9.8554425835 2.9970911974 0 -2 0
25 60 1 0.0 3.816075151 9.806900405 4.9305009637 2 -2 0
26 421 1 0.0 6.100004813 9.8722207626 2.8919564196 0 -1 0
27 84 1 0.0 10.6978932173 7.8551594389 2.9689568086 -1 1 0
28 447 1 0.0 10.2454282555 11.6577325631 3.0304888564 -2 0 0
29 475 1 0.0 7.8424835489 7.6810552994 4.1555979463 0 -2 0
30 213 1 0.0 7.837386939 11.3284215271 4.992505935 0 1 0
31 65 1 0.0 11.7841426156 9.7442954542 5.0765061437 -1 -2 0
32 259 1 0.0 14.3215095091 9.6061648173 3.0123907808 2 1 0
33 55 1 0.0 12.3411669372 6.0680574174 4.9999300773 1 -1 0
34 444 1 0.0 17.3842372828 10.6653250993 4.6219636861 -1 -4 0
35 241 1 0.0 17.1709995481 6.4849576501 5.1596690125 1 -2 0
36 4 1 0.0 13.4788069537 12.234749888 5.7734056802 -1 0 0
37 302 1 0.0 14.8611890822 6.3368925132 3.0637431909 1 -1 0
38 253 1 0.0 20.905228895 11.6267239199 4.7539060059 1 -1 0
39 50 1 0.0 20.3278988778 6.3179753514 4.9029783393 0 1 0
40 118 1 0.0 21.8817003233 8.9529554646 3.1481641043 -1 -1 0
41 420 1 0.0 18.7035976573 8.320413176 3.0364810368 -2 2 0
42 468 1 0.0 23.1348502075 7.3575451142 5.8773212475 -2 0 0
43 255 1 0.0 25.1022095707 8.0753145465 3.3319881716 0 2 0
44 225 1 0.0 27.6076351937 11.6190769437 5.6926040504 0 -2 0
45 53 1 0.0 27.2021056333 10.2819570535 2.9916357242 -2 0 0
46 240 1 0.0 23.9551507874 11.4357370719 3.123475259 -1 -2 0
47 200 1 0.0 25.4231134791 9.4313103307 6.4392159681 -1 0 0
48 402 1 0.0 29.1052007025 7.8756970966 3.8526878082 -1 -1 0
49 142 1 0.0 22.8305641874 5.9042167458 3.0030820137 -2 -1 0
50 480 1 0.0 6.1142129399 14.1576547692 5.4975354227 1 -1 0
51 12 1 0.0 2.0973960603 16.645881007 5.7089389989 -1 1 0
52 8 1 0.0 3.6973149347 16.3517925102 3.010809226 -2 -5 0
53 337 1 0.0 29.8514000358 16.0400619429 2.9590803419 0 -4 0
54 104 1 0.0 2.059402101 13.8914254821 4.0892335217 0 0 0
55 446 1 0.0 4.7629435958 12.7124597565 3.0502600548 -1 0 0
56 238 1 0.0 7.9959720731 14.9084822268 3.0509129815 -3 2 0
57 138 1 0.0 11.5279689546 14.5681981033 3.1664406636 -2 -2 0
58 303 1 0.0 6.0692003703 17.2696623344 4.7774055569 2 -1 0
59 429 1 0.0 9.904113445 17.121624986 4.8325026781 -2 -4 0
60 333 1 0.0 9.3584206212 13.9589402844 5.8039227045 0 -3 0
61 179 1 0.0 16.0923100178 18.6935560655 2.9374088483 -1 -3 0
62 173 1 0.0 16.9337685299 15.8335474027 3.6536310812 -1 -3 0
63 400 1 0.0 15.1981469504 12.8461176813 3.1222804819 1 0 0
64 73 1 0.0 17.2803105876 13.5551653058 5.9950316125 -3 -1 0
65 476 1 0.0 14.6241864419 15.2247713218 6.019839065 1 -1 0
66 249 1 0.0 24.4889488492 16.3591384497 2.9627292158 -4 0 0
67 388 1 0.0 20.0448215903 15.1907318257 6.0533564739 0 -1 0
68 230 1 0.0 21.6793701964 14.7504814717 3.1638311075 1 0 0
69 159 1 0.0 18.7395703414 13.3168640166 3.0725443506 -3 0 0
70 14 1 0.0 26.4350966111 13.5746410893 3.0834066608 -2 0 0
71 385 1 0.0 28.9178298236 14.4701199265 5.5061117538 -4 0 0
72 278 1 0.0 29.5153052691 12.4393344913 3.027067095 -2 -2 0
73 293 1 0.0 25.8949889599 15.4864744907 5.5319545069 -1 -1 0
74 1 1 0.0 29.2233286344 17.7896264241 5.5327364707 0 -2 0
75 23 1 0.0 0.6846359004 20.7339647031 5.5179037808 -2 -3 0
76 294 1 0.0 1.6161674981 22.3231397247 3.0093080689 -1 0 0
77 289 1 0.0 4.2379377623 24.3328037311 3.1857538036 -2 -2 0
78 185 1 0.0 1.4216584928 18.8436524446 3.0203017897 1 0 0
79 34 1 0.0 3.7425547585 19.489470024 5.1531694997 -1 0 0
80 338 1 0.0 0.6499335796 24.1243889694 5.7561163002 0 -2 0
81 56 1 0.0 5.860308428 21.4335723523 3.5894483233 2 -2 0
82 382 1 0.0 11.5823764542 21.4549267168 5.9104735892 -2 -2 0
83 199 1 0.0 9.2092957955 21.8715294826 3.1382947625 1 1 0
84 399 1 0.0 12.0858663635 20.73758253 2.9263449483 1 1 0
85 479 1 0.0 8.057140331 18.9427900764 3.042401806 0 0 0
86 207 1 0.0 9.8851108978 24.1309001716 5.4630987519 -3 -1 0
87 21 1 0.0 15.9810659144 21.8837875048 6.2032750732 -2 -1 0
88 404 1 0.0 12.5875938012 17.5841615401 3.1143562896 -1 1 0
89 77 1 0.0 17.9958664412 19.3745650351 5.3997105829 -2 -3 0
90 31 1 0.0 14.0874914437 19.6535861788 5.0726486923 0 -2 0
91 211 1 0.0 15.4138143242 21.8099933166 3.0604104219 0 -4 0
92 181 1 0.0 12.9144754566 23.8508974754 3.4360935133 -2 -3 0
93 39 1 0.0 22.038580943 22.872619926 3.0798694688 -1 -2 0
94 486 1 0.0 22.3165829713 17.5563027013 5.3836736834 2 0 0
95 279 1 0.0 20.9172709227 20.368166226 4.5885149008 -3 0 0
96 197 1 0.0 23.3287993506 19.3255630021 2.9895832348 -2 -3 0
97 158 1 0.0 19.795651119 17.7041515107 3.1244268314 0 0 0
98 425 1 0.0 18.6505068146 22.0015164209 3.1080009919 -1 -2 0
99 284 1 0.0 28.0907805535 19.0900723061 2.9749521594 -2 0 0
100 101 1 0.0 25.7356123426 18.8198165795 5.0344985852 -2 -1 0
101 440 1 0.0 28.399091055 22.1886490329 3.6980349097 1 -2 0
102 247 1 0.0 25.2796170125 21.8273722992 3.1872742489 0 -1 0
103 348 1 0.0 3.080270566 29.8057995345 5.9708297275 -2 -1 0
104 233 1 0.0 1.363544344 25.5250281358 3.0248061479 -2 -2 0
105 277 1 0.0 0.6804790799 27.908248393 4.8787199791 1 0 0
106 78 1 0.0 3.4741576651 27.8893496827 3.1321002719 0 -1 0
107 99 1 0.0 9.2834171777 29.7007115628 3.0782889036 -2 -1 0
108 258 1 0.0 9.8375258726 26.3573571641 3.1498003589 -1 -4 0
109 114 1 0.0 6.5583744265 27.1987714428 3.0087521325 -4 0 0
110 381 1 0.0 7.3614745498 24.27962222 3.0963041875 3 -3 0
111 487 1 0.0 6.1247757646 27.6826491096 6.302023022 1 0 0
112 164 1 0.0 6.4191559153 29.9623850436 4.2222119751 -3 -2 0
113 89 1 0.0 13.9831528796 28.5824112258 6.039851645 1 -1 0
114 460 1 0.0 17.4140576801 29.5361226133 3.0085811628 -2 -1 0
115 161 1 0.0 12.218233117 28.5445405176 3.0571395362 -1 -3 0
116 401 1 0.0 16.6057935839 24.7270863245 2.9515775386 0 -3 0
117 144 1 0.0 17.1934634003 28.2477521523 6.1664180858 0 -1 0
118 405 1 0.0 17.2326993719 24.9034545115 5.8729635799 -1 0 0
119 38 1 0.0 15.1079468414 27.4518354832 3.1607012829 -2 0 0
120 435 1 0.0 22.9407881834 28.3660335068 3.0322501146 -3 -3 0
121 187 1 0.0 20.5480559623 24.893616124 5.0941716606 -1 -1 0
122 141 1 0.0 20.32902964 27.900745852 6.3067024948 -1 2 0
123 232 1 0.0 19.1488675194 26.8890976552 3.0922993369 0 0 0
124 489 1 0.0 20.4508598326 0.2644142539 3.3735376964 -1 -2 0
125 235 1 0.0 28.2648330797 25.2238197081 3.0467658323 -1 -1 0
126 307 1 0.0 26.1682680197 27.4988691256 3.1859792994 -4 0 0
127 190 1 0.0 27.7147508987 25.8588516949 6.0564619523 1 -2 0
128 20 1 0.0 24.4191462064 24.9638912159 3.01093425 -2 -1 0
129 35 1 0.0 28.6759927235 29.4971211811 3.1358499161 0 -2 0
130 115 1 0.0 4.4332140948 4.0576160475 7.7985933118 1 1 0
131 219 1 0.0 1.6601634149 3.4329961849 6.5927785107 -1 -2 0
132 473 1 0.0 4.2845680269 1.445891108 9.680565608 -1 1 0
133 472 1 0.0 5.7910321431 1.4926633642 6.8152660362 -3 1 0
134 377 1 0.0 1.6453025485 3.5723766439 10.0620953505 1 2 0
135 458 1 0.0 5.1519976419 4.96732264 10.7566456838 -2 1 0
136 217 1 0.0 7.8749426297 3.8991606862 9.4423274531 1 -2 0
137 236 1 0.0 10.584153626 3.9368404399 11.4757742131 -1 1 0
138 145 1 0.0 6.5920799348 2.2546592614 11.9064618122 -2 0 0
139 323 1 0.0 9.13916765 0.5162897698 10.9028046338 -3 1 0
140 378 1 0.0 8.0928073841 5.57038351 12.4524079192 0 2 0
141 46 1 0.0 10.5086578273 2.4461915831 8.2871159319 -2 1 0
142 108 1 0.0 9.3267175804 5.1309784792 6.816332857 1 1 0
143 390 1 0.0 15.2950443763 2.7789606543 11.6571506546 -3 0 0
144 449 1 0.0 12.1485921013 29.7625376414 8.7131201072 2 1 0
145 6 1 0.0 13.118159121 3.8169127952 9.5625294866 -1 1 0
146 366 1 0.0 17.7999670768 1.686026983 7.9814934445 -2 1 0
147 88 1 0.0 18.3921489487 3.1848172459 10.6756308566 0 0 0
148 176 1 0.0 14.5514416697 1.7621723869 7.8251579536 0 -2 0
149 354 1 0.0 17.4212787856 0.2082881212 11.3109915972 2 -1 0
150 72 1 0.0 16.1181648638 5.1461855423 9.5542549879 -2 -3 0
151 13 1 0.0 12.4499957096 1.1355870035 11.594247583 -1 -3 0
152 64 1 0.0 21.3837006082 3.5900491288 9.2654238911 -2 -5 0
153 368 1 0.0 24.1484419207 2.1797941604 11.2500334548 0 -1 0
154 97 1 0.0 20.621663044 1.2227065863 6.5333084722 -2 0 0
155 481 1 0.0 22.5179450389 0.3576246022 8.8898382613 2 -1 0
156 58 1 0.0 18.8218920766 5.0053600739 7.6776998424 -3 1 0
157 461 1 0.0 20.8726658754 1.2597110934 11.51537211 -1 -2 0
158 102 1 0.0 29.6424385606 1.4832698452 7.9184286457 -2 -2 0
159 327 1 0.0 24.4427339127 0.437254866 6.1191191784 -1 -3 0
160 250 1 0.0 26.3669838669 0.5124577962 9.5965149291 -2 2 0
161 380 1 0.0 28.830089461 2.0923828785 11.046582868 2 -1 0
162 445 1 0.0 29.9683922491 5.9914287547 7.865825382 0 1 0
163 131 1 0.0 24.7334966925 5.8623347102 8.2153047947 0 -1 0
164 415 1 0.0 27.4897990785 3.8277975559 8.409221473 1 0 0
165 91 1 0.0 26.5790474235 4.092268912 12.1975266404 -3 0 0
166 330 1 0.0 24.38259031 2.8050972312 8.1713626141 0 1 0
167 344 1 0.0 28.8173031187 5.537909726 10.7301743643 -3 -4 0
168 394 1 0.0 1.3692469582 6.6714378642 11.9140234693 1 0 0
169 406 1 0.0 5.5486516061 11.1599518754 7.215607054 2 0 0
170 180 1 0.0 5.7930402016 8.8031420372 9.366486456 0 1 0
171 27 1 0.0 1.1694159274 11.5477802363 6.0041313482 1 1 0
172 201 1 0.0 2.8404609476 9.4463849012 7.8881699667 0 1 0
173 483 1 0.0 2.8733024122 6.519532572 9.0927517005 1 2 0
174 357 1 0.0 29.410532209 9.046699856 7.0518134711 0 1 0
175 266 1 0.0 3.2342468936 9.0476925276 11.0937774687 -1 0 0
176 206 1 0.0 0.5654426697 10.0627845471 10.0404603454 -2 2 0
177 369 1 0.0 10.4454516369 11.4537806414 7.4062007565 -2 1 0
178 9 1 0.0 11.0113512312 7.7301222422 7.3143048078 -2 1 0
179 168 1 0.0 5.8147468112 6.7632414019 7.1912351338 -2 1 0
180 16 1 0.0 8.1426536541 8.9596614509 7.0664000584 0 2 0
181 269 1 0.0 8.7637813636 7.1324520963 9.6957407909 -2 0 0
182 478 1 0.0 5.8297169419 10.7939994971 11.9320129015 -1 -2 0
183 412 1 0.0 7.9600008568 10.9784553152 9.5141561608 3 1 0
184 271 1 0.0 8.6898281087 9.2896977359 12.1840645987 -2 -2 0
185 156 1 0.0 17.2776323358 7.9897639185 7.9310571379 0 0 0
186 69 1 0.0 13.2782534512 11.7726394713 11.7098609702 0 0 0
187 117 1 0.0 15.6311948469 10.9175202189 8.4025679629 1 -2 0
188 193 1 0.0 12.0388046246 6.6535957269 10.1063813077 -3 -1 0
189 392 1 0.0 14.0860625772 6.6102732038 7.6812539277 -2 -1 0
190 336 1 0.0 12.5235728474 9.746779388 9.2826551706 -1 -1 0
191 67 1 0.0 14.8697585433 9.0768240476 5.9843883992 -3 0 0
192 81 1 0.0 16.6604457623 8.6590370538 10.9919602545 -1 1 0
193 223 1 0.0 19.7399755512 9.1803652284 9.618536334 -2 0 0
194 373 1 0.0 22.045793803 10.1956182912 7.475864477 -3 1 0
195 95 1 0.0 22.952537972 11.6199184842 11.8907050087 -3 -2 0
196 426 1 0.0 18.9160044841 11.3773593327 7.5186873371 -4 1 0
197 92 1 0.0 21.5239080035 6.7509719894 8.6164620563 -3 -2 0
198 137 1 0.0 18.9977299201 6.3314688312 10.8361259145 0 -1 0
199 24 1 0.0 20.2723739667 12.365527835 10.2625911095 -1 0 0
200 98 1 0.0 24.0818831599 8.731960478 9.3995889788 0 1 0
201 109 1 0.0 28.9890052204 12.0419694641 8.3653229848 -2 0 0
202 155 1 0.0 27.5138966293 8.4112162027 10.0451533922 -1 1 0
203 431 1 0.0 24.3246166416 6.1890488542 11.389582654 2 -1 0
204 110 1 0.0 27.1495239149 6.7869158866 6.3649283253 -1 0 0
205 418 1 0.0 26.0348477016 11.2100183225 9.1753642901 3 2 0
206 358 1 0.0 29.5560538194 9.0241041324 12.7726209808 0 2 0
207 245 1 0.0 25.072877757 9.2179687869 12.3750170821 3 2 0
208 205 1 0.0 2.9144338693 15.1615610481 10.195492267 0 -2 0
209 375 1 0.0 0.7971869084 16.437939971 12.0525380405 0 -1 0
210 326 1 0.0 5.34101377 13.8269647547 11.5138235918 -1 -1 0
211 482 1 0.0 0.4428541022 17.7256657016 8.6848952597 -1 -1 0
212 450 1 0.0 3.3426406724 11.9665424427 9.8651534368 0 -2 0
213 49 1 0.0 3.7776114737 17.4530056314 8.1789808218 -3 -2 0
214 32 1 0.0 0.1350236586 13.3389481581 11.0626863065 -2 -1 0
215 416 1 0.0 0.6427154636 14.6569488217 8.0710657301 -2 0 0
216 455 1 0.0 6.361339698 16.5663021612 10.1812714282 -2 -2 0
217 363 1 0.0 3.5347467325 13.7655288103 7.1907725607 -1 0 0
218 331 1 0.0 3.6529487444 18.1803389921 11.2977174522 0 -2 0
219 167 1 0.0 9.6686060417 14.9291370605 9.4318851809 0 -2 0
220 407 1 0.0 10.5477183175 12.1431354386 10.5629160956 2 0 0
221 453 1 0.0 6.7846720444 13.7500488728 8.601564691 1 -1 0
222 48 1 0.0 7.936258189 16.5209803383 7.2902797769 -2 -1 0
223 152 1 0.0 17.0828077642 11.7802798467 11.0342906276 -2 -2 0
224 29 1 0.0 17.1873477447 16.8420118615 7.1096704321 -1 -1 0
225 121 1 0.0 13.4725224564 15.8815877712 10.1850606855 -1 0 0
226 76 1 0.0 13.2007403229 13.036312858 8.8221317669 0 -1 0
227 3 1 0.0 16.4186371325 14.3242892082 9.0967382399 -2 -1 0
228 343 1 0.0 11.7344859736 15.501955274 7.1047427815 -2 -1 0
229 192 1 0.0 21.9835616065 17.0585499241 9.1075015895 -2 -5 0
230 209 1 0.0 20.8342933085 15.2852521184 11.3538789745 -2 3 0
231 188 1 0.0 23.1233891307 15.0555075286 7.009644187 0 -2 0
232 488 1 0.0 18.651702562 17.2921897737 10.0370331995 -2 0 0
233 215 1 0.0 24.4988545604 12.4315040593 6.158983759 -1 0 0
234 257 1 0.0 25.0229967468 16.4350043325 9.8301645635 -1 -2 0
235 283 1 0.0 23.7903381502 13.489167107 9.5978102899 -3 3 0
236 33 1 0.0 28.136482253 16.2674870293 10.5128681859 0 0 0
237 41 1 0.0 26.8471916263 14.2454524313 8.266172478 0 1 0
238 162 1 0.0 26.7301252973 13.4409531851 11.4892676669 -4 0 0
239 465 1 0.0 27.0876597344 17.3889237634 7.7107656645 -2 -3 0
240 150 1 0.0 2.9906646923 23.7649260179 13.3549561164 0 -2 0
241 170 1 0.0 5.9114936134 22.0160526263 8.5795295219 -2 0 0
242 469 1 0.0 6.2634503663 19.1766374613 7.4152247181 0 1 0
243 186 1 0.0 2.0574489331 20.5444927766 8.373903405 0 -2 0
244 106 1 0.0 0.6415168078 19.7172253841 11.3339006079 -4 -2 0
245 451 1 0.0 3.7309644786 21.3884294337 11.0300958922 1 -1 0
246 122 1 0.0 3.5867760724 22.608314145 6.0196368676 -1 -2 0
247 70 1 0.0 1.0725151577 23.2896978902 10.597949243 2 -2 0
248 335 1 0.0 10.2524317052 20.0718660192 8.3978356979 0 0 0
249 345 1 0.0 11.2958271223 23.3774153675 8.4452454179 -2 -2 0
250 256 1 0.0 9.4088713281 17.8915808768 10.4734426736 -1 -3 0
251 349 1 0.0 8.1924689318 21.4772902378 6.2726635567 -3 -1 0
252 19 1 0.0 6.5967890528 22.9557517229 11.5475261635 -2 -1 0
253 443 1 0.0 6.7198880837 19.7166450277 10.9462874027 3 -3 0
254 124 1 0.0 15.585405909 18.1493851746 9.7250543672 -1 0 0
255 198 1 0.0 16.9235067775 23.8877364888 10.5675992693 1 1 0
256 222 1 0.0 12.8743192631 22.7396281863 12.1630450029 0 0 0
257 457 1 0.0 13.0468104471 18.339931399 7.6607735495 0 0 0
258 372 1 0.0 14.4203063126 23.0837845811 8.6393126703 0 -4 0
259 62 1 0.0 12.5064143273 19.2100115849 10.8128696013 -1 -2 0
260 146 1 0.0 15.3674548529 21.0421687788 10.9705630867 -3 -1 0
261 68 1 0.0 17.8291567597 20.3528368064 8.7752156299 -1 -3 0
262 280 1 0.0 18.8974350237 21.8415886771 11.8174828152 -2 -2 0
263 286 1 0.0 21.0330975412 19.4082343457 11.0299696192 -2 -2 0
264 471 1 0.0 19.097222538 22.3175865142 6.4951705969 2 -3 0
265 74 1 0.0 20.8570373856 22.3582723926 9.35466154 -1 -1 0
266 252 1 0.0 22.2904663659 22.5695035063 6.485170817 -3 -2 0
267 87 1 0.0 20.8401832929 19.5888862868 7.6511373493 -1 -3 0
268 371 1 0.0 24.1086349825 18.5504077005 11.9985567051 0 0 0
269 316 1 0.0 24.2344707582 18.993697448 7.887470154 -2 -1 0
270 43 1 0.0 28.4497966345 20.1637549636 7.6552735465 -2 0 0
271 410 1 0.0 24.8665353205 21.5067479033 11.2510316553 1 -1 0
272 130 1 0.0 24.9317668352 22.0629864131 8.1972952101 -2 0 0
273 276 1 0.0 27.9624092768 22.5430987619 11.0518055016 -1 -1 0
274 299 1 0.0 27.0711700667 19.3320225492 10.4531074978 -2 -2 0
275 314 1 0.0 28.3684374601 23.2161370722 7.7888714956 -1 0 0
276 171 1 0.0 3.211856897 26.2261194452 6.2151107013 -2 0 0
277 85 1 0.0 3.1263658016 26.2652221283 11.2244391053 -2 -2 0
278 433 1 0.0 3.2100668139 28.4794963513 8.9187951298 2 0 0
279 28 1 0.0 5.6811686603 29.1379874711 11.5314114454 -5 0 0
280 466 1 0.0 5.8720692768 26.5544632378 9.2610023444 -2 -2 0
281 304 1 0.0 0.4080298083 29.2954384165 10.5072759183 -3 -3 0
282 398 1 0.0 3.6594566668 24.2259644632 8.8330395063 0 -2 0
283 467 1 0.0 29.9783566855 26.2670778555 11.838421845 -1 -1 0
284 359 1 0.0 10.4748143212 24.8221221555 11.1982577215 1 0 0
285 204 1 0.0 8.2469101371 24.2514138663 8.9667391164 0 -3 0
286 419 1 0.0 10.831646674 29.3744562085 5.8297419543 -1 0 0
287 267 1 0.0 8.3561594729 29.9205954595 7.7938715923 0 -2 0
288 105 1 0.0 11.9322411773 26.5971250552 8.6012397135 -1 0 0
289 374 1 0.0 6.390197902 24.4072123356 6.2523104441 0 -2 0
290 422 1 0.0 9.1993620165 26.8535857347 6.909442513 -1 -3 0
291 128 1 0.0 8.240872186 27.1995784343 11.2018647183 -2 -2 0
292 352 1 0.0 11.3144467906 28.0388821929 11.4121788038 -1 -4 0
293 86 1 0.0 15.411881341 29.022799793 8.988545525 -3 -2 0
294 123 1 0.0 15.9408341496 26.040749744 8.4398011696 1 -3 0
295 291 1 0.0 13.648185881 25.3351589379 6.1952125381 1 -3 0
296 160 1 0.0 14.6241088036 28.5454069107 12.0563628166 2 0 0
297 432 1 0.0 13.9269737576 25.5600111251 10.878431089 2 0 0
298 172 1 0.0 17.6442894175 26.9616134522 11.2369579324 -1 -2 0
299 174 1 0.0 19.7152674815 28.7357040597 9.3664712854 -3 -2 0
300 25 1 0.0 20.4890171738 24.9285668344 11.3001289858 -1 -3 0
301 5 1 0.0 22.2950815309 25.7572291198 8.4454224285 -4 -2 0
302 189 1 0.0 23.3959305546 27.3161896663 5.8698259911 -1 2 0
303 37 1 0.0 19.1566819243 25.2184520236 8.3466349829 -1 -2 0
304 403 1 0.0 25.8779400215 27.9381899796 7.6525347537 0 -3 0
305 379 1 0.0 28.9810691399 28.4993755004 7.4733786871 -1 2 0
306 90 1 0.0 27.3867993986 27.5022129288 10.5467985261 -1 0 0
307 484 1 0.0 0.2417144967 25.8119774295 8.6234600691 1 -1 0
308 308 1 0.0 23.9806872986 27.876550595 10.2055222713 2 -2 0
309 439 1 0.0 24.7976083567 24.4753832124 6.1093965192 -1 -3 0
310 151 1 0.0 25.5121582193 29.2135781595 12.6276193687 -3 -2 0
311 154 1 0.0 26.0866068726 24.9670251996 9.1109918195 1 -3 0
312 490 1 0.0 2.7823709709 1.1874166534 16.8757952852 -1 -3 0
313 268 1 0.0 3.3387611856 2.2055495064 12.6378702216 1 2 0
314 389 1 0.0 0.7741670734 0.6714994481 13.6941258093 0 -3 0
315 216 1 0.0 0.9906204577 3.9721765292 16.9524789379 1 0 0
316 315 1 0.0 4.3527508655 3.9700647557 16.8081405135 1 0 0
317 353 1 0.0 9.5164869737 2.8894205535 17.0063024686 -1 0 0
318 208 1 0.0 10.1617360123 1.7466166429 13.9087300026 -2 3 0
319 210 1 0.0 10.9498127369 0.2480388231 16.8179046225 0 -3 0
320 44 1 0.0 6.3319561226 1.5112208098 17.014618431 -4 -1 0
321 143 1 0.0 10.2041117675 4.9732503316 14.8004625144 2 -3 0
322 242 1 0.0 7.3474751401 3.3004553568 14.7152016751 -1 -2 0
323 251 1 0.0 12.8860422498 3.5578063894 13.8291585619 2 -1 0
324 54 1 0.0 16.9443337416 2.9369500912 14.3812555049 -1 0 0
325 428 1 0.0 12.32189203 5.7620466368 16.9895027112 1 0 0
326 125 1 0.0 12.9862072784 2.4627487 16.8995490628 2 0 0
327 221 1 0.0 14.5602866619 0.9441546511 14.2811313525 -3 -2 0
328 157 1 0.0 15.4590697861 4.2626092475 16.858277046 -1 -2 0
329 227 1 0.0 16.4688478233 1.2407155604 16.9808304037 0 -1 0
330 139 1 0.0 19.4432149722 4.3067587339 13.426506657 -3 -3 0
331 166 1 0.0 23.1593728657 1.0832842828 14.0686378212 -2 -1 0
332 329 1 0.0 22.4124106484 4.1524520064 12.9581508985 -1 -3 0
333 351 1 0.0 21.0665296551 1.5829186216 16.9762862439 -2 -1 0
334 177 1 0.0 19.0423289896 4.2493496395 16.8274842066 -1 1 0
335 275 1 0.0 22.4312784141 4.5460051014 16.840125965 0 2 0
336 298 1 0.0 19.4728940229 0.8479871555 14.3002149001 1 0 0
337 169 1 0.0 27.3145656351 3.4619841054 16.9476909934 -3 -2 0
338 470 1 0.0 24.9788023442 4.0061197942 14.8200560584 -4 2 0
339 313 1 0.0 29.5829042397 1.2796450767 16.7187952551 0 0 0
340 395 1 0.0 27.2980872036 1.5471841527 14.0460234173 -1 2 0
341 126 1 0.0 29.9681872735 3.8929224955 13.5442979865 0 -1 0
342 26 1 0.0 24.2772119595 1.8078153975 16.9640892353 -1 0 0
343 287 1 0.0 1.8650328402 11.2268131478 13.0024272728 -1 -2 0
344 346 1 0.0 3.9276880657 7.0500998916 16.9412306219 0 -1 0
345 393 1 0.0 1.0538820989 6.43357783 15.1895061627 -3 1 0
346 120 1 0.0 3.0142992869 8.494969591 14.1169830677 -1 -3 0
347 11 1 0.0 5.7956004377 7.6412998001 12.272065329 -2 -3 0
348 40 1 0.0 2.9256565382 9.9442071852 16.9258665636 2 1 0
349 408 1 0.0 3.5254200885 5.1687764878 13.5625987167 -1 0 0
350 83 1 0.0 8.1689291067 5.7069909622 17.0963130093 -2 -2 0
351 196 1 0.0 9.0667167554 8.2623774845 15.4289682836 -2 -3 0
352 264 1 0.0 11.9791634768 9.1919601392 16.7924995976 -4 1 0
353 93 1 0.0 10.9940656789 7.2866564219 12.9388208056 -1 -1 0
354 239 1 0.0 7.5551987251 10.711622766 17.0023290533 1 0 0
355 103 1 0.0 6.0991291306 6.1563485544 14.9137450714 2 -2 0
356 220 1 0.0 5.8305475512 9.2611477834 14.9781992324 2 -2 0
357 228 1 0.0 10.359642247 11.2898715149 14.0625645579 -2 -2 0
358 163 1 0.0 14.5346103933 11.2535515704 14.3840097283 -1 -2 0
359 441 1 0.0 16.2568328371 7.1770159588 16.8135937159 -1 1 0
360 212 1 0.0 13.7572069236 8.7066797284 12.2063954863 0 -1 0
361 437 1 0.0 16.8028881746 6.4057360286 13.3639691602 0 0 0
362 376 1 0.0 15.6100892352 10.2135773012 17.0343595883 0 0 0
363 463 1 0.0 13.8459190762 6.4986048774 14.4238077746 1 -1 0
364 202 1 0.0 21.2441539159 7.528429715 16.9376082407 -2 2 0
365 281 1 0.0 18.534981112 9.2904861348 16.3948882933 -2 -3 0
366 474 1 0.0 19.9135013878 7.3150313857 14.0698044671 -3 -2 0
367 273 1 0.0 21.147731565 10.8264714104 16.9738123855 1 0 0
368 119 1 0.0 22.4260374478 9.8107815791 14.3874316157 -1 -2 0
369 364 1 0.0 24.3421267858 11.681461931 17.054796805 -2 -1 0
370 147 1 0.0 19.7785201733 10.0883878899 12.5969501313 0 0 0
371 61 1 0.0 23.3282314717 6.8285841819 14.4526913279 0 -1 0
372 438 1 0.0 25.4605328146 9.1144169678 15.6106699119 -2 -3 0
373 311 1 0.0 27.2991673829 6.9979640031 13.8174691283 1 -1 0
374 127 1 0.0 29.8234068815 9.1924630481 16.0221623963 2 -2 0
375 409 1 0.0 28.4600654291 6.4479629426 16.9318929836 -1 1 0
376 59 1 0.0 25.2914991551 6.2805926112 16.9774823337 0 -3 0
377 397 1 0.0 27.5320882861 11.17904986 16.9311785 -1 2 0
378 229 1 0.0 27.4089572388 11.0267121481 13.5683065432 -2 -2 0
379 7 1 0.0 6.2585499321 12.3731555146 14.5400765444 -2 1 0
380 347 1 0.0 4.7732729025 15.9186158597 16.9160159887 0 0 0
381 94 1 0.0 6.3648675291 15.4883036194 13.9905253597 0 -2 0
382 135 1 0.0 0.633700459 12.0770134538 16.9680165748 1 0 0
383 231 1 0.0 4.1930214578 12.7663769845 16.9580442358 -1 -3 0
384 194 1 0.0 1.6090353004 15.0853816931 16.8548753541 1 0 0
385 178 1 0.0 3.1584056353 16.7681769472 14.1588703694 -1 1 0
386 391 1 0.0 3.3210771549 13.7221382602 14.0783388806 0 -2 0
387 165 1 0.0 29.981674129 13.5491108246 14.2493650959 -2 -2 0
388 148 1 0.0 0.171125824 17.4979281576 14.8908577814 -1 1 0
389 71 1 0.0 10.1569214422 12.3339619042 17.0312184292 -2 -4 0
390 325 1 0.0 7.7075048882 17.0499744858 16.55493708 -2 0 0
391 288 1 0.0 8.331626318 13.4503655274 12.3256879393 1 0 0
392 328 1 0.0 9.6201200441 14.6874027628 15.041910399 -1 -1 0
393 423 1 0.0 7.282573823 13.9588479026 16.9900504804 0 -1 0
394 305 1 0.0 9.219812489 17.4523518358 13.5846907947 -2 -1 0
395 270 1 0.0 11.2739341495 14.821440316 12.2867744924 2 0 0
396 112 1 0.0 14.2203616958 17.6922211699 16.8520015875 -2 -1 0
397 183 1 0.0 17.5232411227 14.6122039967 12.286853423 2 1 0
398 237 1 0.0 17.5681391855 11.6274408103 14.1470905509 -1 -1 0
399 274 1 0.0 16.12406247 15.1839467102 16.5997952294 1 1 0
400 456 1 0.0 18.0542192078 12.6777091373 16.9734388319 -1 -3 0
401 100 1 0.0 13.2561451068 12.31292418 16.9748123762 -1 0 0
402 464 1 0.0 14.4055965258 14.3171109512 13.1424843871 -1 -3 0
403 452 1 0.0 12.6281620588 15.159699584 15.9453791584 4 -2 0
404 300 1 0.0 15.7512457262 17.0547303809 13.7707762169 -1 -4 0
405 462 1 0.0 12.6065970539 17.3897019612 13.5654557604 -1 -3 0
406 134 1 0.0 18.940559716 17.1292684494 13.443852422 1 1 0
407 340 1 0.0 21.0754144341 13.9270258289 16.9899418255 -2 -1 0
408 362 1 0.0 23.0501001348 13.1493337134 14.7163228549 -1 -3 0
409 132 1 0.0 22.4925141595 16.7504068603 16.9572094848 -1 1 0
410 477 1 0.0 20.1520923487 13.3558895947 13.750334935 -3 1 0
411 66 1 0.0 19.1436875707 16.34318509 16.8278571525 -2 0 0
412 342 1 0.0 24.0769396968 15.1394330856 12.5460564818 -1 0 0
413 47 1 0.0 22.0015781945 17.1798022459 13.9050773585 1 -2 0
414 79 1 0.0 26.1212523798 13.3943634558 14.9519442824 -2 0 0
415 265 1 0.0 27.7646423199 15.7075563123 13.6549384089 2 0 0
416 10 1 0.0 28.4044138108 14.4348263451 16.9635257141 -2 -1 0
417 191 1 0.0 27.9991224927 17.6853703732 16.9949075311 -1 2 0
418 195 1 0.0 25.4119876272 15.6541861644 16.9068719326 -2 -2 0
419 149 1 0.0 2.2839288493 20.0051154523 14.2369723842 -1 0 0
420 322 1 0.0 5.706158576 18.4869767629 13.7961765525 0 2 0
421 485 1 0.0 5.4730348269 19.336813157 16.8995672297 3 0 0
422 30 1 0.0 3.5212798657 22.420900746 16.953683873 0 0 0
423 324 1 0.0 5.0216447491 21.4932507098 14.313018097 -2 1 0
424 370 1 0.0 2.6079458055 18.1451592519 16.9596602537 -1 -2 0
425 417 1 0.0 8.0332707828 20.5253879548 14.1286580009 0 1 0
426 246 1 0.0 9.7078878032 21.3264289291 11.3250864704 -4 -2 0
427 116 1 0.0 9.655087597 19.3787824695 16.9009766863 0 -2 0
428 334 1 0.0 10.5077519607 22.4793918902 16.9773920835 0 0 0
429 182 1 0.0 11.0927880953 20.1587071193 14.1119788368 -1 -3 0
430 262 1 0.0 10.0903121208 23.2231782909 13.9738779207 0 -1 0
431 297 1 0.0 7.2623188744 21.8729275137 16.9325695119 -4 -1 0
432 413 1 0.0 17.1979974561 18.8753030708 16.7837986429 0 -2 0
433 411 1 0.0 13.2871402401 23.2484847071 15.4601306683 4 -1 0
434 296 1 0.0 17.1807576547 19.776205842 13.4551489116 -1 0 0
435 260 1 0.0 18.6067408323 21.8396919476 16.0860824702 4 -4 0
436 203 1 0.0 15.6028965377 21.7180960417 16.9245271148 -3 1 0
437 430 1 0.0 15.9842049148 22.6624882016 13.75388939 -1 -1 0
438 140 1 0.0 12.7136468875 20.3498252074 16.9718350925 -2 2 0
439 332 1 0.0 14.1584652216 20.1630962873 14.0772304169 -1 -2 0
440 454 1 0.0 20.2238370481 20.0022177467 14.0434407214 0 -2 0
441 436 1 0.0 23.2150308366 20.138932867 14.9771947133 -2 -4 0
442 113 1 0.0 22.1314790935 22.1335236206 12.6834782004 0 -1 0
443 386 1 0.0 21.5719325798 22.245201178 16.9854461166 -2 -1 0
444 243 1 0.0 20.535382514 19.2149854209 16.9863976485 -1 -3 0
445 22 1 0.0 23.6827531131 24.4384272137 11.0520334202 -2 -1 0
446 96 1 0.0 25.0543343171 18.8085063651 16.9913506594 -2 1 0
447 320 1 0.0 24.1206249422 23.38585686 15.6458741688 1 -1 0
448 254 1 0.0 27.3007229849 21.0083264731 16.9611871648 -1 -4 0
449 51 1 0.0 26.1524924942 21.6829679361 14.0806643198 -3 -2 0
450 272 1 0.0 0.264372944 20.0503402386 16.9227731333 1 -2 0
451 318 1 0.0 26.5936903516 18.5439663129 14.1249319319 -1 -2 0
452 356 1 0.0 29.2959591982 21.2539426274 13.9534636336 -7 -1 0
453 82 1 0.0 5.3266637409 25.3154885652 16.8714871511 -1 -3 0
454 224 1 0.0 5.4369990039 26.5044128032 13.5316276422 3 0 0
455 261 1 0.0 3.6120501628 28.1098075478 16.9263993543 0 -1 0
456 321 1 0.0 0.6855517381 28.4172243315 16.8482175421 0 -1 0
457 384 1 0.0 4.6936013969 29.9846243476 14.5149523342 2 -3 0
458 136 1 0.0 2.1832577936 27.6417528611 14.0268767939 -3 -3 0
459 396 1 0.0 2.124883393 25.3962993519 16.9074740354 0 0 0
460 15 1 0.0 6.6953347326 28.4161852683 16.8693667473 -1 -2 0
461 214 1 0.0 8.4577733894 24.8174609976 16.9791128219 1 -1 0
462 339 1 0.0 7.9971218806 29.4341660455 14.1123552205 2 -3 0
463 459 1 0.0 6.9725435238 23.8804124785 14.4560831673 -2 -1 0
464 355 1 0.0 8.9935288208 26.3328307194 14.136140224 2 2 0
465 309 1 0.0 9.5143240183 27.6667091347 16.9306433509 2 -2 0
466 80 1 0.0 11.6963369244 25.5067989875 16.9312825542 -2 0 0
467 317 1 0.0 12.1479833196 25.7645378541 13.7526624337 -1 0 0
468 312 1 0.0 15.3024861138 25.7162441014 13.7507033135 -2 -1 0
469 248 1 0.0 12.1775708152 28.8641880142 14.3108362523 1 -3 0
470 448 1 0.0 16.3338478312 28.4224481209 14.9991168091 0 -2 0
471 365 1 0.0 14.7410961339 26.1185880463 16.8904741965 -1 0 0
472 442 1 0.0 13.9719314991 29.1865446625 16.9500923892 -3 -3 0
473 107 1 0.0 18.3016902206 24.6287084923 13.5879073567 -2 0 0
474 301 1 0.0 23.4042069911 26.1014620757 16.9944531893 0 -4 0
475 383 1 0.0 21.1730451968 24.374483097 14.6814799684 0 -4 0
476 244 1 0.0 19.2147629399 27.5524665246 14.1785820851 1 -2 0
477 153 1 0.0 18.8514421054 29.1230566316 16.9413931969 -3 -2 0
478 111 1 0.0 23.5253512581 26.1852463245 13.6297771889 -2 -3 0
479 350 1 0.0 21.4261888784 28.0360932149 12.0743597488 -2 -1 0