ITEM: TIMESTEP
210000
ITEM: NUMBER OF ATOMS
1949
ITEM: BOX BOUNDS pp pp ff
-1.3000000000000000e+00 3.0500000000000000e+01
0.0000000000000000e+00 3.2700000000000003e+01
0.0000000000000000e+00 5.5000000000000000e+01
ITEM: ATOMS id type xs ys zs
51 1 0.0629621 0.0713763 0.0635583
94 1 0.130257 0.150478 0.0489141
55 1 0.935247 0.10693 0.0607744
648 1 0.0259231 0.163627 0.0559405
1250 2 0.986746 0.0217125 0
1251 2 0.986746 0.0651376 0
1252 2 0.986746 0.151988 0
1253 2 0.986746 0.195413 0
1254 2 0.025418 0 0
1255 2 0.025418 0.0868502 0
1256 2 0.025418 0.130275 0
1257 2 0.025418 0.217125 0
93 1 0.163772 0.237676 0.0574228
1258 2 0.0640896 0.0217125 0
1259 2 0.0640896 0.0651376 0
1260 2 0.0640896 0.151988 0
1261 2 0.0640896 0.195413 0
394 1 0.664713 0.0384914 0.196639
95 1 0.206996 0.063498 0.0925811
1262 2 0.102761 0 0
1263 2 0.102761 0.0868502 0
1264 2 0.102761 0.130275 0
1265 2 0.102761 0.217125 0
1266 2 0.141433 0.0217125 0
1267 2 0.141433 0.0651376 0
1268 2 0.141433 0.151988 0
1269 2 0.141433 0.195413 0
649 1 0.100877 0.16718 0.0981159
1032 1 0.11722 0.0597314 0.111354
924 1 0.270477 0.0502931 0.0512752
1270 2 0.180104 0 0
1271 2 0.180104 0.0868502 0
1272 2 0.180104 0.130275 0
1273 2 0.180104 0.217125 0
1274 2 0.218776 0.0217125 0
1275 2 0.218776 0.0651376 0
1276 2 0.218776 0.151988 0
1277 2 0.218776 0.195413 0
925 1 0.229136 0.151961 0.0658203
921 1 0.324998 0.226757 0.0618929
923 1 0.384731 0.0569405 0.0603997
1278 2 0.257447 0 0
1279 2 0.257447 0.0868502 0
1280 2 0.257447 0.130275 0
1281 2 0.257447 0.217125 0
92 1 0.20806 0.251463 0.110963
1282 2 0.296119 0.0217125 0
1283 2 0.296119 0.0651376 0
1284 2 0.296119 0.151988 0
1285 2 0.296119 0.195413 0
1286 2 0.334791 0 0
1287 2 0.334791 0.0868502 0
1288 2 0.334791 0.130275 0
1289 2 0.334791 0.217125 0
537 1 0.331348 0.130801 0.120337
538 1 0.306729 0.0421425 0.113842
922 1 0.397024 0.191989 0.0747816
1290 2 0.373462 0.0217125 0
1291 2 0.373462 0.0651376 0
1292 2 0.373462 0.151988 0
1293 2 0.373462 0.195413 0
1294 2 0.412134 0 0
1295 2 0.412134 0.0868502 0
1296 2 0.412134 0.130275 0
1297 2 0.412134 0.217125 0
481 1 0.434358 0.289921 0.0577364
1090 1 0.891718 0.432464 0.368414
1298 2 0.450805 0.0217125 0
1299 2 0.450805 0.0651376 0
1300 2 0.450805 0.151988 0
1301 2 0.450805 0.195413 0
1302 2 0.489477 0 0
1303 2 0.489477 0.0868502 0
1304 2 0.489477 0.130275 0
1305 2 0.489477 0.217125 0
688 1 0.536277 0.123178 0.0621439
689 1 0.54268 0.230138 0.114528
1306 2 0.528148 0.0217125 0
1307 2 0.528148 0.0651376 0
1308 2 0.528148 0.151988 0
1309 2 0.528148 0.195413 0
601 1 0.63788 0.112003 0.0555083
885 1 0.565595 0.0538219 0.126891
30 1 0.725412 0.0726909 0.469433
1310 2 0.56682 0 0
1311 2 0.56682 0.0868502 0
1312 2 0.56682 0.130275 0
1313 2 0.56682 0.217125 0
1314 2 0.605492 0.0217125 0
1315 2 0.605492 0.0651376 0
1316 2 0.605492 0.151988 0
1317 2 0.605492 0.195413 0
604 1 0.635794 0.130545 0.113145
605 1 0.729625 0.152772 0.0743485
1322 2 0.682835 0.0217125 0
1323 2 0.682835 0.0651376 0
1324 2 0.682835 0.151988 0
1325 2 0.682835 0.195413 0
1318 2 0.644163 0 0
1319 2 0.644163 0.0868502 0
1320 2 0.644163 0.130275 0
1321 2 0.644163 0.217125 0
602 1 0.702947 0.176063 0.0935851
79 1 0.246442 0.23661 0.48139
1113 1 0.831968 0.138293 0.0648535
404 1 0.789497 0.135933 0.118622
1112 1 0.752966 0.0568105 0.0611229
1242 2 0.909403 0.0217125 0
1243 2 0.909403 0.0651376 0
1244 2 0.909403 0.151988 0
1245 2 0.909403 0.195413 0
1246 2 0.948075 0 0
1247 2 0.948075 0.0868502 0
1248 2 0.948075 0.130275 0
1249 2 0.948075 0.217125 0
1238 2 0.870732 0 0
1239 2 0.870732 0.0868502 0
1240 2 0.870732 0.130275 0
1241 2 0.870732 0.217125 0
1230 2 0.793389 0 0
1231 2 0.793389 0.0868502 0
1232 2 0.793389 0.130275 0
1233 2 0.793389 0.217125 0
1234 2 0.83206 0.0217125 0
1235 2 0.83206 0.0651376 0
1236 2 0.83206 0.151988 0
1237 2 0.83206 0.195413 0
1226 2 0.754717 0.0217125 0
1227 2 0.754717 0.0651376 0
1228 2 0.754717 0.151988 0
1229 2 0.754717 0.195413 0
54 1 0.860395 0.0338261 0.0494755
646 1 0.871348 0.213647 0.110012
647 1 0.900351 0.21277 0.055903
570 1 0.803624 0.225258 0.073614
1114 1 0.893818 0.117822 0.114198
835 1 0.522692 0.256788 0.486241
683 1 -0.00330918 0.147549 0.107491
684 1 0.989611 0.251394 0.0981389
364 1 0.641717 0.49216 0.136358
1347 2 0.986746 0.282263 0
1348 2 0.986746 0.325688 0
1349 2 0.986746 0.412538 0
1350 2 0.986746 0.455963 0
1351 2 0.025418 0.26055 0
1352 2 0.025418 0.347401 0
1353 2 0.025418 0.390826 0
1438 2 0.025418 0.477676 0
164 1 0.0289677 0.378667 0.136699
1223 1 0.814382 0.0188727 0.369123
1354 2 0.0640896 0.282263 0
1355 2 0.0640896 0.325688 0
1356 2 0.0640896 0.412538 0
1357 2 0.0640896 0.455963 0
1358 2 0.102761 0.26055 0
1359 2 0.102761 0.347401 0
1360 2 0.102761 0.390826 0
1445 2 0.102761 0.477676 0
253 1 0.216544 0.3606 0.127504
1361 2 0.141433 0.282263 0
1362 2 0.141433 0.325688 0
1363 2 0.141433 0.412538 0
1364 2 0.141433 0.455963 0
163 1 0.118097 0.376705 0.101603
845 1 0.292754 0.427482 0.109644
844 1 0.196027 0.384761 0.0566894
843 1 0.246294 0.301307 0.063369
842 1 0.337623 0.364326 0.0611529
841 1 0.327282 0.43623 0.0591554
1365 2 0.180104 0.26055 0
1366 2 0.180104 0.347401 0
1367 2 0.180104 0.390826 0
1452 2 0.180104 0.477676 0
1368 2 0.218776 0.282263 0
1369 2 0.218776 0.325688 0
1370 2 0.218776 0.412538 0
1371 2 0.218776 0.455963 0
963 1 0.337333 0.312762 0.11506
1372 2 0.257447 0.26055 0
1373 2 0.257447 0.347401 0
1374 2 0.257447 0.390826 0
1459 2 0.257447 0.477676 0
1375 2 0.296119 0.282263 0
1376 2 0.296119 0.325688 0
1377 2 0.296119 0.412538 0
1378 2 0.296119 0.455963 0
1379 2 0.334791 0.26055 0
1380 2 0.334791 0.347401 0
1381 2 0.334791 0.390826 0
1466 2 0.334791 0.477676 0
562 1 0.204888 0.47549 0.0711282
583 1 0.397747 0.397106 0.102982
482 1 0.492235 0.36 0.072189
1382 2 0.373462 0.282263 0
1383 2 0.373462 0.325688 0
1384 2 0.373462 0.412538 0
1385 2 0.373462 0.455963 0
483 1 0.602447 0.318545 0.0628845
1386 2 0.412134 0.26055 0
1387 2 0.412134 0.347401 0
1388 2 0.412134 0.390826 0
1473 2 0.412134 0.477676 0
465 1 0.525516 0.443189 0.0636683
1389 2 0.450805 0.282263 0
1390 2 0.450805 0.325688 0
1391 2 0.450805 0.412538 0
1392 2 0.450805 0.455963 0
1393 2 0.489477 0.26055 0
1394 2 0.489477 0.347401 0
1395 2 0.489477 0.390826 0
1480 2 0.489477 0.477676 0
584 1 0.432646 0.350232 0.127121
1396 2 0.528148 0.282263 0
1397 2 0.528148 0.325688 0
1398 2 0.528148 0.412538 0
1399 2 0.528148 0.455963 0
964 1 0.415327 0.25753 0.136235
686 1 0.507016 0.229343 0.122101
582 1 0.436149 0.496994 0.0594878
817 1 0.334788 0.0374665 0.40199
464 1 0.556442 0.502959 0.0476626
485 1 0.545863 0.225152 0.0559768
484 1 0.624586 0.254024 0.0595655
217 1 0.720511 0.478761 0.0537298
1400 2 0.56682 0.26055 0
1401 2 0.56682 0.347401 0
1402 2 0.56682 0.390826 0
1487 2 0.56682 0.477676 0
48 1 0.704616 0.377284 0.0539805
1403 2 0.605492 0.282263 0
1404 2 0.605492 0.325688 0
1405 2 0.605492 0.412538 0
1406 2 0.605492 0.455963 0
216 1 0.629075 0.429858 0.0738886
1410 2 0.682835 0.282263 0
1411 2 0.682835 0.325688 0
1412 2 0.682835 0.412538 0
1413 2 0.682835 0.455963 0
1407 2 0.644163 0.26055 0
1408 2 0.644163 0.347401 0
1409 2 0.644163 0.390826 0
1494 2 0.644163 0.477676 0
49 1 0.707848 0.294661 0.0901596
287 1 0.6561 0.294887 0.135738
135 1 0.39466 0.469239 0.435638
65 1 0.839728 0.27332 0.438994
1340 2 0.909403 0.282263 0
1341 2 0.909403 0.325688 0
1342 2 0.909403 0.412538 0
1343 2 0.909403 0.455963 0
1344 2 0.948075 0.26055 0
1345 2 0.948075 0.347401 0
1346 2 0.948075 0.390826 0
1431 2 0.948075 0.477676 0
568 1 0.93661 0.366333 0.133381
1337 2 0.870732 0.26055 0
1338 2 0.870732 0.347401 0
1339 2 0.870732 0.390826 0
1424 2 0.870732 0.477676 0
167 1 0.372597 0.509274 0.304254
1330 2 0.793389 0.26055 0
1331 2 0.793389 0.347401 0
1332 2 0.793389 0.390826 0
1417 2 0.793389 0.477676 0
1333 2 0.83206 0.282263 0
1334 2 0.83206 0.325688 0
1335 2 0.83206 0.412538 0
1336 2 0.83206 0.455963 0
569 1 0.924858 0.312939 0.0626415
1326 2 0.754717 0.282263 0
1327 2 0.754717 0.325688 0
1328 2 0.754717 0.412538 0
1329 2 0.754717 0.455963 0
804 1 0.0779265 0.432256 0.0532176
47 1 0.813293 0.42987 0.0520277
46 1 0.856608 0.391562 0.0636174
50 1 0.825003 0.304388 0.102889
803 1 0.980419 0.438635 0.0554567
282 1 0.168753 0.125154 0.150344
281 1 0.0782727 0.0641084 0.163377
285 1 0.0350065 0.158123 0.199083
284 1 0.0999827 0.241934 0.193828
614 1 0.160537 0.0936151 0.267139
1035 1 0.960408 0.0861495 0.215691
503 1 0.57859 0.421132 0.48301
682 1 0.991713 0.115059 0.158438
283 1 0.162928 0.221428 0.164144
615 1 0.117627 0.0359286 0.313114
91 1 0.242301 0.173994 0.160594
613 1 0.18671 0.0709245 0.228977
935 1 0.324203 0.238296 0.141882
931 1 0.351299 0.0774286 0.166962
1004 1 0.224539 0.173999 0.221735
1003 1 0.314681 0.172098 0.242768
1005 1 0.114656 0.187068 0.253154
739 1 0.286361 0.0162361 0.200994
972 1 0.381842 0.0579877 0.252865
687 1 0.479234 0.113803 0.0992711
189 1 0.925262 0.468718 0.143625
545 1 0.164552 0.481774 0.348325
536 1 0.40488 0.162574 0.163089
932 1 0.447029 0.108963 0.211397
882 1 0.430645 0.0545695 0.131832
690 1 0.525609 0.191082 0.175735
883 1 0.469981 0.091761 0.163399
1034 1 0.924257 0.0250003 0.171303
973 1 0.517065 0.00309958 0.238486
603 1 0.656725 0.191931 0.131205
405 1 0.797501 0.171837 0.170374
245 1 0.549192 0.150799 0.256893
288 1 0.621842 0.27532 0.190177
884 1 0.544837 0.0950211 0.157738
244 1 0.666494 0.115657 0.236781
344 1 0.527458 0.258262 0.215861
243 1 0.699262 0.101757 0.155273
650 1 0.0839918 0.254042 0.127403
103 1 0.0300632 0.312731 0.212432
663 1 0.715903 0.199104 0.199335
625 1 0.899161 0.0034685 0.10935
685 1 0.963583 0.287442 0.160457
681 1 0.94647 0.165969 0.170329
770 1 0.745811 0.0749982 0.214853
1115 1 0.839423 0.048525 0.148977
161 1 0.142465 0.455811 0.220617
165 1 0.0547389 0.40145 0.185056
187 1 0.91637 0.437039 0.238961
188 1 0.858674 0.42244 0.197217
101 1 0.0734358 0.383485 0.274966
251 1 0.126411 0.338626 0.226026
254 1 0.129731 0.317695 0.168229
815 1 0.102452 0.474974 0.124997
962 1 0.327272 0.363321 0.149452
252 1 0.251549 0.291089 0.18079
255 1 0.194778 0.260826 0.208784
258 1 0.378404 0.329383 0.237513
1001 1 0.247185 0.344316 0.303168
259 1 0.313234 0.388211 0.220472
1002 1 0.341214 0.248861 0.284035
63 1 0.926779 0.390385 0.418125
933 1 0.4197 0.201839 0.223249
934 1 0.326266 0.244045 0.201779
585 1 0.520373 0.401539 0.119489
257 1 0.496253 0.366869 0.212883
961 1 0.386472 0.405697 0.185621
965 1 0.432542 0.296324 0.187257
341 1 0.579298 0.411038 0.187595
256 1 0.489876 0.419296 0.169495
345 1 0.543121 0.330135 0.166306
500 1 0.759018 0.408927 0.0968672
929 1 0.708196 0.443547 0.198296
286 1 0.638966 0.385958 0.12133
220 1 0.710451 0.426991 0.144944
290 1 0.757574 0.347442 0.219323
289 1 0.642716 0.339096 0.214382
36 1 0.958064 0.313742 0.462918
229 1 0.321686 0.178188 0.472601
608 1 0.865274 0.24784 0.184078
102 1 0.0420126 0.388804 0.239897
219 1 0.831751 0.437746 0.1509
567 1 0.851909 0.336506 0.1588
765 1 0.560998 0.0414688 0.0570004
566 1 0.763328 0.249504 0.136641
607 1 0.896707 0.331152 0.209575
610 1 0.943109 0.317764 0.219817
609 1 0.916434 0.201968 0.229749
104 1 0.0184647 0.247012 0.246326
522 1 0.113465 0.284508 0.287135
521 1 0.0992814 0.21051 0.327119
1048 1 0.0817045 0.124313 0.296665
1049 1 0.0409977 0.0559532 0.345818
940 1 0.124637 0.235304 0.415158
1166 1 0.788222 0.0110912 0.494381
1047 1 0.0637532 0.0637084 0.250363
525 1 0.216505 0.142762 0.316115
523 1 0.210793 0.263439 0.262929
524 1 0.253654 0.226885 0.274137
937 1 0.235216 0.230608 0.342773
97 1 0.290053 0.11667 0.372283
644 1 0.38186 0.0697037 0.324073
96 1 0.376589 0.135788 0.373935
643 1 0.360475 0.141452 0.293907
936 1 0.165536 0.303021 0.333087
82 1 0.607004 0.479064 0.244776
642 1 0.415797 0.181939 0.276127
1098 1 0.099419 0.0950585 0.49197
1043 1 0.495966 0.221055 0.347469
820 1 0.511942 0.0833303 0.384445
422 1 0.593314 0.0345749 0.399928
641 1 0.493559 0.142327 0.313916
1044 1 0.515951 0.258589 0.315687
383 1 0.417238 0.465068 0.496413
1129 1 0.615641 0.0643539 0.290701
1130 1 0.700949 0.00395405 0.278196
664 1 0.647221 0.213635 0.255344
1128 1 0.623853 0.107386 0.324826
665 1 0.728262 0.170688 0.315386
330 1 0.786064 0.115565 0.269289
1127 1 0.769847 0.102214 0.352695
1126 1 0.830659 0.0826433 0.315622
1082 1 0.662709 0.22634 0.404573
948 1 0.704606 0.039295 0.380611
662 1 0.826919 0.131905 0.224129
327 1 0.929514 0.0409219 0.289053
329 1 0.835923 0.20521 0.262342
328 1 0.947834 0.167492 0.276463
661 1 0.820146 0.167741 0.312197
1203 1 0.980978 0.161058 0.34064
1204 1 0.918102 0.182735 0.361954
326 1 0.820291 0.0162751 0.270628
105 1 0.0631299 0.328969 0.321974
542 1 0.214142 0.386915 0.230812
295 1 0.1719 0.401314 0.333933
449 1 0.995841 0.266733 0.326886
823 1 0.735396 0.275682 0.458679
541 1 0.17181 0.370299 0.273674
291 1 0.0530092 0.417658 0.34127
293 1 0.0970134 0.375297 0.442464
297 1 0.340704 0.338339 0.326228
1042 1 0.40123 0.27332 0.359357
294 1 0.175288 0.419886 0.389761
858 1 0.196252 0.0102118 0.4114
169 1 0.399849 0.421835 0.241452
296 1 0.354423 0.362751 0.299776
492 1 0.231553 0.459642 0.282913
168 1 0.370395 0.448151 0.290399
1131 1 0.738429 0.457023 0.436188
1083 1 0.596611 0.274436 0.435146
298 1 0.343697 0.431796 0.377452
491 1 0.251309 0.446797 0.348967
170 1 0.430794 0.493579 0.212678
1041 1 0.470766 0.393415 0.309833
987 1 0.988702 0.0603329 0.479209
1045 1 0.43503 0.293468 0.279272
374 1 0.624732 0.296723 0.359356
342 1 0.542457 0.411479 0.261212
375 1 0.553334 0.325338 0.376667
162 1 0.182131 0.393418 0.174338
928 1 0.683362 0.408179 0.246256
373 1 0.657661 0.371926 0.311654
372 1 0.59392 0.485065 0.313013
343 1 0.536135 0.319008 0.274802
138 1 0.747664 0.255886 0.258615
137 1 0.683914 0.281166 0.29487
139 1 0.827063 0.294541 0.257652
140 1 0.81479 0.351055 0.280401
136 1 0.738161 0.325351 0.331213
927 1 0.735992 0.423079 0.294143
926 1 0.799204 0.445801 0.302254
1132 1 0.760217 0.423298 0.38595
1089 1 0.938696 0.379839 0.352869
942 1 0.944136 0.51241 0.30868
448 1 0.977542 0.35652 0.280043
1088 1 0.86451 0.2807 0.327985
446 1 0.82426 0.365625 0.348654
606 1 0.941732 0.268875 0.269059
1087 1 0.773492 0.238954 0.367399
447 1 0.910594 0.401866 0.289199
1097 1 0.0745228 0.158619 0.462737
856 1 0.0651022 0.0615251 0.414317
857 1 0.0937012 0.0275579 0.389217
505 1 0.675824 0.330106 0.420542
860 1 0.181098 0.149713 0.468905
98 1 0.281143 0.0274472 0.334135
854 1 0.25031 0.0887569 0.423557
822 1 0.761013 0.258173 0.504724
1133 1 0.685787 0.432651 0.347877
939 1 0.142367 0.172538 0.391214
561 1 0.174571 0.488095 0.102322
938 1 0.201077 0.168661 0.37058
1038 1 0.317036 0.0849888 0.502736
1156 1 0.220074 0.242066 0.419372
859 1 0.214838 0.0583968 0.476947
1039 1 0.416704 0.0117208 0.478481
818 1 0.339214 0.0488653 0.451256
450 1 0.987025 0.275046 0.360975
1081 1 0.629127 0.204206 0.35428
264 1 0.567434 0.115866 0.493769
816 1 0.42445 0.0368532 0.388108
228 1 0.38734 0.174047 0.436722
930 1 0.769355 0.486475 0.186029
819 1 0.507021 0.0763343 0.445519
227 1 0.480123 0.147262 0.487061
943 1 0.0051887 0.466446 0.381521
738 1 0.261669 0.0422836 0.253732
1084 1 0.504047 0.258097 0.427366
1085 1 0.44927 0.201508 0.394701
81 1 0.700147 0.509529 0.267026
1033 1 0.986029 0.0539333 0.106778
1167 1 0.785713 0.129446 0.49967
947 1 0.676993 0.135522 0.416462
1169 1 0.631322 0.0622304 0.450368
1168 1 0.679883 0.153643 0.486379
946 1 0.569158 0.156531 0.42908
824 1 0.674169 0.372345 0.469002
788 1 0.778682 0.102426 0.422588
504 1 0.618719 0.418148 0.425452
945 1 0.83567 0.484762 0.404726
1134 1 0.596337 0.473493 0.377737
1202 1 0.0507583 0.153035 0.378646
988 1 0.988251 0.172698 0.482791
786 1 0.936953 0.139095 0.416352
1201 1 0.0220897 0.246443 0.430465
787 1 0.836189 0.183392 0.425354
1205 1 0.930649 0.230665 0.424858
731 1 0.207462 0.00792944 0.152771
1222 1 0.880248 0.0813625 0.366069
1221 1 0.974467 0.0372115 0.392519
1031 1 0.143196 0.00213807 0.194194
62 1 0.981919 0.406455 0.485126
1053 1 0.178217 0.45829 0.459115
877 1 0.172236 0.31082 0.476874
876 1 0.17669 0.314293 0.401251
292 1 0.0279224 0.378682 0.402142
855 1 0.176721 0.0624952 0.357211
242 1 0.65426 0.0146611 0.136457
880 1 0.284666 0.357843 0.378303
878 1 0.215599 0.380857 0.478171
1160 1 0.266149 0.326895 0.43744
1159 1 0.332678 0.379259 0.438119
879 1 0.260213 0.445862 0.426615
40 1 0.836178 0.409618 0.448318
385 1 0.438625 0.29722 0.468682
1157 1 0.30853 0.242074 0.388552
645 1 0.4787 0.0369537 0.305795
218 1 0.846741 0.464349 0.112766
1158 1 0.385578 0.341917 0.414706
384 1 0.465904 0.434761 0.46235
17 1 0.500946 0.41852 0.40229
16 1 0.521986 0.350431 0.45663
371 1 0.488846 0.472085 0.348759
131 1 0.295204 0.461116 0.479857
39 1 0.789837 0.349269 0.472613
64 1 0.844409 0.349918 0.40522
1086 1 0.768698 0.295471 0.400633
814 1 0.0141607 0.495821 0.0954137
186 1 0.0308177 0.480436 0.241296
401 1 0.890866 0.0121124 0.231258
941 1 0.869242 0.495852 0.329683
393 1 0.632047 0.00326489 0.22397
1054 1 0.150999 0.493537 0.41361
881 1 0.487411 0.0117607 0.0856887
543 1 0.25871 0.462234 0.227718
263 1 0.515203 0.0381315 0.489301
1060 1 0.675517 0.0115721 0.491839
1099 1 0.135548 0.0903163 0.550986
80 1 0.185308 0.194078 0.545504
352 1 0.0766205 0.043582 0.600516
535 1 1.00498 0.261436 0.519565
1100 1 0.0839571 0.22596 0.571487
809 1 0.82442 0.0146783 0.543029
905 1 0.918897 0.40058 0.751777
513 1 0.0239031 0.244848 0.656422
994 1 0.192622 0.1713 0.604912
995 1 0.0846958 0.13506 0.634698
993 1 0.253697 0.0753351 0.587653
1078 1 0.30221 0.00351904 0.55568
367 1 0.317807 0.251406 0.533096
1077 1 0.346373 0.0945059 0.552454
1076 1 0.396885 0.120896 0.610457
366 1 0.273974 0.177121 0.518147
1739 2 0.868446 0.412538 0.909091
71 1 0.385808 0.18647 0.548135
75 1 0.29031 0.173542 0.581098
72 1 0.448159 0.250955 0.59849
368 1 0.43979 0.259238 0.541744
262 1 0.505126 0.0996933 0.547223
1744 2 0.945789 0.282263 0.909091
261 1 0.53711 0.207531 0.530796
834 1 0.629427 0.181641 0.534542
833 1 0.571468 0.187856 0.580028
836 1 0.0747671 0.485306 0.853174
1122 1 0.605198 0.0908096 0.572413
28 1 0.697359 0.124688 0.575131
1738 2 0.868446 0.325688 0.909091
27 1 0.762368 0.144065 0.559618
26 1 0.716177 0.0688464 0.534175
29 1 0.658062 0.0817533 0.519468
1121 1 0.710046 0.217068 0.566154
1091 1 0.994392 0.0291475 0.54571
1070 1 0.826181 0.241241 0.541626
990 1 0.862579 0.11323 0.554941
1069 1 0.931687 0.269975 0.564843
1092 1 0.0283747 0.134791 0.551495
1093 1 0.953985 0.14009 0.591776
337 1 0.980154 0.058236 0.64651
1094 1 0.884379 0.0411573 0.595965
336 1 0.877754 0.0904507 0.652643
514 1 0.969069 0.158647 0.653663
109 1 0.185267 0.469187 0.591173
110 1 0.0677024 0.394663 0.56561
1191 1 0.13861 0.318711 0.566956
986 1 0.890426 0.060426 0.49708
1123 1 0.65611 0.0447836 0.62389
1052 1 0.160048 0.467053 0.532931
1192 1 0.0779006 0.311647 0.606656
360 1 0.18361 0.0687428 0.783891
1195 1 0.226504 0.312444 0.533937
78 1 0.298409 0.35612 0.491988
1144 1 0.186451 0.378247 0.611368
1209 1 0.384563 0.439536 0.585542
77 1 0.370421 0.342899 0.56138
382 1 0.403939 0.416254 0.531143
1143 1 0.275411 0.478193 0.6185
76 1 0.336974 0.245972 0.601917
1210 1 0.301741 0.410698 0.572605
1835 2 0.984461 0.477676 0.909091
381 1 0.462141 0.37167 0.506249
1208 1 0.445033 0.392794 0.59798
832 1 0.527181 0.282281 0.562819
831 1 0.625566 0.342161 0.564414
1740 2 0.868446 0.455963 0.909091
20 1 0.510926 0.452231 0.532098
670 1 0.548804 0.388506 0.589326
315 1 0.646433 0.316478 0.627613
265 1 0.474921 0.135357 0.547393
821 1 0.803151 0.348092 0.549319
1023 1 0.683517 0.447449 0.636095
668 1 0.786141 0.448751 0.568901
669 1 0.700707 0.37319 0.603491
825 1 0.687633 0.419414 0.511384
666 1 0.64578 0.467212 0.545179
550 1 0.787471 0.424514 0.51911
61 1 0.949337 0.395427 0.538386
640 1 0.940734 0.0520857 0.828136
1068 1 0.973905 0.249059 0.603315
1067 1 0.921675 0.252035 0.627311
1066 1 0.825969 0.264548 0.607795
1025 1 0.845653 0.384416 0.596898
38 1 0.83962 0.321768 0.505841
828 1 0.305965 0.47589 0.851382
1749 2 0.984461 0.347401 0.909091
420 1 0.93335 0.425496 0.611589
1743 2 0.907118 0.390826 0.909091
468 1 0.218465 0.102099 0.648209
467 1 0.159304 0.201016 0.658122
358 1 0.218009 0.139599 0.708039
469 1 0.27458 0.0543497 0.701157
357 1 0.241543 0.208923 0.757471
236 1 0.109643 0.155641 0.705895
359 1 0.182324 0.056084 0.738246
318 1 0.0611251 0.248801 0.741549
240 1 0.113649 0.15634 0.762221
998 1 0.994684 0.118663 0.756168
356 1 0.225245 0.14861 0.820521
1074 1 0.328331 0.0950504 0.653631
370 1 0.434224 0.103256 0.661482
1075 1 0.311681 0.172486 0.706626
470 1 0.271671 0.103934 0.763658
74 1 0.289249 0.172408 0.62703
73 1 0.381738 0.206327 0.645755
719 1 0.397515 0.238384 0.777605
873 1 0.365068 0.0424331 0.737423
1747 2 0.945789 0.455963 0.909091
531 1 0.890664 0.455968 0.503649
754 1 0.455546 0.0482587 0.703077
369 1 0.490855 0.144859 0.605753
755 1 0.533611 0.104419 0.741342
751 1 0.56155 0.120446 0.658958
628 1 0.478028 0.214456 0.739721
752 1 0.544416 0.0634039 0.631927
629 1 0.437329 0.210124 0.698733
627 1 0.565269 0.191444 0.709375
1150 1 0.575951 0.0239834 0.691597
314 1 0.651752 0.245571 0.607866
313 1 0.732924 0.178571 0.632135
1124 1 0.759504 0.0661268 0.643586
112 1 0.769538 0.102109 0.701075
113 1 0.644486 0.10743 0.717113
1125 1 0.823651 0.145068 0.606764
114 1 0.6481 0.138531 0.737634
515 1 0.0233123 0.0155224 0.696827
1741 2 0.907118 0.26055 0.909091
1828 2 0.907118 0.477676 0.909091
512 1 0.0668004 0.24564 0.675063
511 1 0.0194711 0.127899 0.69613
237 1 0.970357 0.216723 0.718459
999 1 0.902956 0.15438 0.76145
151 1 0.869037 0.181606 0.651805
32 1 0.113994 0.429546 0.632769
1193 1 0.1319 0.264388 0.623328
31 1 0.201656 0.458764 0.666203
466 1 0.165162 0.250842 0.715804
317 1 0.965933 0.318266 0.733093
1194 1 0.22105 0.261675 0.578605
230 1 0.400823 0.145913 0.502743
418 1 0.0447163 0.352289 0.657486
66 1 0.136914 0.390583 0.681082
506 1 0.0514092 0.498503 0.756915
759 1 0.129962 0.337169 0.752172
634 1 0.45898 0.0501165 0.776874
1206 1 0.299642 0.347889 0.629997
1207 1 0.407251 0.314534 0.636159
1145 1 0.228467 0.264622 0.640584
720 1 0.34212 0.264656 0.723654
70 1 0.26241 0.336551 0.682116
1141 1 0.329064 0.357391 0.728327
1116 1 0.577774 0.419163 0.63467
1120 1 0.493655 0.36836 0.645984
1118 1 0.417649 0.500662 0.623918
630 1 0.505228 0.202133 0.647406
716 1 0.450836 0.363073 0.700022
191 1 0.494422 0.281542 0.677365
1119 1 0.396791 0.418539 0.655866
192 1 0.564796 0.338409 0.681754
866 1 0.609888 0.456064 0.687656
195 1 0.449426 0.313663 0.741622
597 1 0.520144 0.422079 0.772749
37 1 0.904549 0.329433 0.504705
1024 1 0.790891 0.372419 0.633591
626 1 0.588776 0.252737 0.665148
867 1 0.687393 0.384754 0.679931
312 1 0.75758 0.202507 0.649814
868 1 0.766405 0.403161 0.705595
311 1 0.752825 0.265271 0.641796
593 1 0.7499 0.273816 0.699393
193 1 0.604181 0.318863 0.723788
594 1 0.694332 0.221489 0.710578
1746 2 0.945789 0.412538 0.909091
1745 2 0.945789 0.325688 0.909091
154 1 0.851068 0.341261 0.669799
434 1 0.905559 0.434784 0.666343
155 1 0.857218 0.279506 0.662207
152 1 0.855688 0.255642 0.726359
417 1 0.0288982 0.458942 0.683568
153 1 0.845486 0.339465 0.720446
419 1 0.999469 0.351741 0.60602
904 1 0.870696 0.435328 0.780351
1742 2 0.907118 0.347401 0.909091
1748 2 0.984461 0.26055 0.909091
756 1 0.127052 0.115841 0.828073
757 1 0.110695 0.154755 0.852245
997 1 0.045625 0.0774886 0.803842
319 1 0.151926 0.22873 0.795639
239 1 0.0435916 0.198384 0.792124
234 1 0.29678 0.0673446 0.859517
433 1 0.829822 0.476701 0.638837
1117 1 0.511057 0.499204 0.599382
558 1 0.34991 0.193971 0.817225
760 1 0.21344 0.323836 0.737881
718 1 0.39784 0.29007 0.810933
874 1 0.360523 0.120205 0.742054
635 1 0.341383 0.087583 0.802579
557 1 0.36556 0.237057 0.856857
1096 1 0.124225 0.252478 0.516254
233 1 0.403589 0.121588 0.851859
875 1 0.43799 0.161116 0.802095
199 1 0.487191 0.240603 0.808409
198 1 0.510629 0.246861 0.844657
200 1 0.538517 0.138911 0.787262
631 1 0.378326 0.0287269 0.853707
232 1 0.495703 0.0864238 0.856501
1750 2 0.984461 0.390826 0.909091
480 1 0.731208 0.0664496 0.748286
353 1 0.128019 0.0534706 0.667766
989 1 0.907293 0.18164 0.525531
111 1 0.79887 0.158993 0.726202
197 1 0.581855 0.179281 0.859106
115 1 0.734618 0.131511 0.782797
196 1 0.649147 0.135428 0.816366
1198 1 0.714248 0.132045 0.853693
1197 1 0.680012 0.04899 0.853423
1199 1 0.801591 0.136503 0.847726
595 1 0.651019 0.221874 0.762957
957 1 0.847216 0.280713 0.851287
476 1 0.823411 0.0231399 0.766278
1200 1 0.844693 0.0581759 0.848356
1000 1 0.871618 0.139298 0.805495
472 1 0.904486 0.198423 0.854226
439 1 0.952456 0.0389558 0.74046
996 1 0.00473405 0.122721 0.853462
473 1 0.0279221 0.221639 0.849924
238 1 0.965023 0.217311 0.769915
396 1 0.199379 0.397554 0.848148
316 1 0.0233174 0.373161 0.764734
510 1 0.142055 0.465833 0.798595
320 1 0.146609 0.280783 0.857418
67 1 0.137261 0.460159 0.719512
758 1 0.10183 0.317183 0.802405
1014 1 0.0222939 0.394157 0.842438
474 1 0.0323546 0.30865 0.853286
400 1 0.234356 0.420371 0.753708
559 1 0.301621 0.217727 0.802595
397 1 0.266691 0.373826 0.862266
399 1 0.315099 0.428535 0.756723
68 1 0.187454 0.373416 0.797986
398 1 0.337827 0.419108 0.809075
560 1 0.225225 0.292987 0.835128
69 1 0.279397 0.294042 0.774223
1737 2 0.868446 0.282263 0.909091
194 1 0.560328 0.283692 0.744359
266 1 0.211437 0.0481204 0.833699
706 1 0.479574 0.48273 0.852441
556 1 0.345102 0.324242 0.853172
717 1 0.425413 0.367822 0.791068
426 1 0.537095 0.396847 0.843327
427 1 0.528528 0.320041 0.795878
430 1 0.653551 0.355522 0.853558
428 1 0.59456 0.230341 0.809541
655 1 0.621338 0.453319 0.843273
654 1 0.71415 0.435882 0.80925
592 1 0.707401 0.350183 0.746739
869 1 0.746182 0.436563 0.747629
429 1 0.65563 0.258478 0.852493
959 1 0.72216 0.323537 0.816515
591 1 0.650406 0.318193 0.778622
960 1 0.768761 0.220354 0.760797
956 1 0.749927 0.2212 0.82536
596 1 0.61211 0.410261 0.734204
958 1 0.786762 0.333501 0.854457
1012 1 0.799676 0.422457 0.830682
1011 1 0.796136 0.339242 0.778662
471 1 0.861283 0.266271 0.786465
475 1 0.916095 0.355821 0.836686
1013 1 0.931795 0.448241 0.849476
1015 1 0.965134 0.309491 0.796299
1680 2 0.21649 0 0.909091
1681 2 0.21649 0.0868502 0.909091
1682 2 0.21649 0.130275 0.909091
1683 2 0.21649 0.217125 0.909091
1676 2 0.177819 0.0217125 0.909091
1677 2 0.177819 0.0651376 0.909091
1678 2 0.177819 0.151988 0.909091
1679 2 0.177819 0.195413 0.909091
1672 2 0.139147 0 0.909091
1673 2 0.139147 0.0868502 0.909091
1674 2 0.139147 0.130275 0.909091
1675 2 0.139147 0.217125 0.909091
1664 2 0.0618039 0 0.909091
1665 2 0.0618039 0.0868502 0.909091
1666 2 0.0618039 0.130275 0.909091
1667 2 0.0618039 0.217125 0.909091
1668 2 0.100476 0.0217125 0.909091
1669 2 0.100476 0.0651376 0.909091
1670 2 0.100476 0.151988 0.909091
1671 2 0.100476 0.195413 0.909091
1684 2 0.255162 0.0217125 0.909091
1685 2 0.255162 0.0651376 0.909091
1686 2 0.255162 0.151988 0.909091
1687 2 0.255162 0.195413 0.909091
1588 2 0.327044 0.0217125 0.909091
1589 2 0.327044 0.0651376 0.909091
1590 2 0.327044 0.151988 0.909091
1591 2 0.327044 0.195413 0.909091
1596 2 0.404387 0.0217125 0.909091
1597 2 0.404387 0.0651376 0.909091
1598 2 0.404387 0.151988 0.909091
1599 2 0.404387 0.195413 0.909091
1592 2 0.365716 0 0.909091
1593 2 0.365716 0.0868502 0.909091
1594 2 0.365716 0.130275 0.909091
1595 2 0.365716 0.217125 0.909091
1600 2 0.443059 0 0.909091
1601 2 0.443059 0.0868502 0.909091
1602 2 0.443059 0.130275 0.909091
1603 2 0.443059 0.217125 0.909091
1604 2 0.48173 0.0217125 0.909091
1605 2 0.48173 0.0651376 0.909091
1606 2 0.48173 0.151988 0.909091
1607 2 0.48173 0.195413 0.909091
1608 2 0.520402 0 0.909091
1609 2 0.520402 0.0868502 0.909091
1610 2 0.520402 0.130275 0.909091
1611 2 0.520402 0.217125 0.909091
1612 2 0.559073 0.0217125 0.909091
1613 2 0.559073 0.0651376 0.909091
1614 2 0.559073 0.151988 0.909091
1615 2 0.559073 0.195413 0.909091
1616 2 0.597745 0 0.909091
1617 2 0.597745 0.0868502 0.909091
1618 2 0.597745 0.130275 0.909091
1619 2 0.597745 0.217125 0.909091
1620 2 0.636417 0.0217125 0.909091
1621 2 0.636417 0.0651376 0.909091
1622 2 0.636417 0.151988 0.909091
1623 2 0.636417 0.195413 0.909091
1624 2 0.675088 0 0.909091
1625 2 0.675088 0.0868502 0.909091
1626 2 0.675088 0.130275 0.909091
1627 2 0.675088 0.217125 0.909091
1628 2 0.71376 0.0217125 0.909091
1629 2 0.71376 0.0651376 0.909091
1630 2 0.71376 0.151988 0.909091
1631 2 0.71376 0.195413 0.909091
1632 2 0.752431 0 0.909091
1633 2 0.752431 0.0868502 0.909091
1634 2 0.752431 0.130275 0.909091
1635 2 0.752431 0.217125 0.909091
1636 2 0.791103 0.0217125 0.909091
1637 2 0.791103 0.0651376 0.909091
1638 2 0.791103 0.151988 0.909091
1639 2 0.791103 0.195413 0.909091
1640 2 0.829774 0 0.909091
1641 2 0.829774 0.0868502 0.909091
1642 2 0.829774 0.130275 0.909091
1643 2 0.829774 0.217125 0.909091
1644 2 0.868446 0.0217125 0.909091
1645 2 0.868446 0.0651376 0.909091
1646 2 0.868446 0.151988 0.909091
1647 2 0.868446 0.195413 0.909091
1648 2 0.907118 0 0.909091
1649 2 0.907118 0.0868502 0.909091
1650 2 0.907118 0.130275 0.909091
1651 2 0.907118 0.217125 0.909091
1652 2 0.945789 0.0217125 0.909091
1653 2 0.945789 0.0651376 0.909091
1654 2 0.945789 0.151988 0.909091
1655 2 0.945789 0.195413 0.909091
1656 2 0.984461 0 0.909091
1657 2 0.984461 0.0868502 0.909091
1658 2 0.984461 0.130275 0.909091
1659 2 0.984461 0.217125 0.909091
1660 2 0.0231324 0.0217125 0.909091
1661 2 0.0231324 0.0651376 0.909091
1662 2 0.0231324 0.151988 0.909091
1663 2 0.0231324 0.195413 0.909091
1759 2 0.100476 0.325688 0.909091
1758 2 0.100476 0.282263 0.909091
1756 2 0.0618039 0.347401 0.909091
1755 2 0.0618039 0.26055 0.909091
1842 2 0.0618039 0.477676 0.909091
1760 2 0.100476 0.412538 0.909091
1761 2 0.100476 0.455963 0.909091
1757 2 0.0618039 0.390826 0.909091
1767 2 0.177819 0.412538 0.909091
1768 2 0.177819 0.455963 0.909091
1766 2 0.177819 0.325688 0.909091
1765 2 0.177819 0.282263 0.909091
1856 2 0.21649 0.477676 0.909091
1771 2 0.21649 0.390826 0.909091
1769 2 0.21649 0.26055 0.909091
1770 2 0.21649 0.347401 0.909091
1849 2 0.139147 0.477676 0.909091
1764 2 0.139147 0.390826 0.909091
1762 2 0.139147 0.26055 0.909091