LAMMPS (23 Jun 2022 - Update 3)
#################################################
# Initialize the system:
#################################################
units real
atom_style full
boundary p p f

#################################################
# Read liquid and solid files and define groups:
#################################################
read_data lj-polymer-5.data extra/atom/types 1 group LJFLUID
Reading data file ...
  orthogonal box = (-1.3 0 0) to (30.5 32.7 55)
  1 by 2 by 2 MPI processor grid
  reading atoms ...
  1225 atoms
  reading velocities ...
  1225 velocities
  scanning bonds ...
  1 = max bonds/atom
  scanning angles ...
  1 = max angles/atom
  scanning dihedrals ...
  1 = max dihedrals/atom
  reading bonds ...
  980 bonds
  reading angles ...
  735 angles
  reading dihedrals ...
  490 dihedrals
Finding 1-2 1-3 1-4 neighbors ...
  special bond factors lj:    0        0        0       
  special bond factors coul:  0        0        0       
     2 = max # of 1-2 neighbors
     2 = max # of 1-3 neighbors
     2 = max # of 1-4 neighbors
     4 = max # of special neighbors
  special bonds CPU = 0.001 seconds
  read_data CPU = 0.029 seconds
read_data solid-walls-hcp.data add append offset 1 0 0 0 0 group SOLID
Reading data file ...
  orthogonal box = (-1.3 0 0) to (30.5 32.7 55)
  1 by 2 by 2 MPI processor grid
  reading atoms ...
  724 atoms
  reading velocities ...
  724 velocities
Finding 1-2 1-3 1-4 neighbors ...
  special bond factors lj:    0        0        0       
  special bond factors coul:  0        0        0       
     2 = max # of 1-2 neighbors
     2 = max # of 1-3 neighbors
     2 = max # of 1-4 neighbors
     4 = max # of special neighbors
  special bonds CPU = 0.001 seconds
  read_data CPU = 0.007 seconds

# Define regions and groups to split the SOLID into two groups
variable zmid equal (zhi-zlo)/2

region lower_wall_region block -1 EDGE -1 EDGE -1 ${zmid}
region lower_wall_region block -1 EDGE -1 EDGE -1 27.5
group lower_wall_group region lower_wall_region
1035 atoms in group lower_wall_group
group LOWER_SOLID intersect lower_wall_group SOLID
362 atoms in group LOWER_SOLID

region upper_wall_region block -1 EDGE -1 EDGE ${zmid} EDGE
region upper_wall_region block -1 EDGE -1 EDGE 27.5 EDGE
group upper_wall_group region upper_wall_region
900 atoms in group upper_wall_group
group UPPER_SOLID intersect upper_wall_group SOLID
362 atoms in group UPPER_SOLID

#################################################
# Define relevant variables:
#################################################

variable mass_fluid equal 12
variable mass_solid equal 12
variable sigma_FF equal 3.15
variable sigma_FS equal 3.15
variable epsilon_FF	equal 0.15
variable epsilon_FS equal 0.09

variable T equal 250
variable Tthermostat equal ${T}*0.985
variable Tthermostat equal 250*0.985
variable dens equal 0.85
variable cutoff_radius equal 10
variable tstep equal 1

variable bond_constant equal 0.544217 #Match LJ stiffness
variable bond_length equal 1.12246204831*${sigma_FF} # Bond length is 2^(1/6)*sigma
variable bond_length equal 1.12246204831*3.15 
variable angle_constant equal 5
variable bond_angle equal 110
variable dihedral_coeff_k equal -2.8
variable dihedral_coeff_n equal 1
variable dihedral_coeff_d equal -7
variable thermonum equal 1000
variable num_bins equal 30
variable num_bins_sigmafl equal 400
variable bin_width equal (zhi-zlo)/${num_bins}
variable bin_width equal (zhi-zlo)/30
variable bin_width_sigmafl equal (zhi-zlo)/${num_bins_sigmafl}
variable bin_width_sigmafl equal (zhi-zlo)/400

variable hundredthousandtimeshalfshear equal 170 # This makes it in m/s
variable halfshear equal ${hundredthousandtimeshalfshear}*1e-5 # Real units
variable halfshear equal 170*1e-5 

#################################################
# Define interactions, bonds, dihedrals:
#################################################
# Set respective masses
mass 1 ${mass_fluid}
mass 1 12
mass 2 ${mass_solid}
mass 2 12

# For non-bonded species
pair_style lj/cut ${cutoff_radius}
pair_style lj/cut 10
pair_coeff 1 1 ${epsilon_FF} ${sigma_FF}
pair_coeff 1 1 0.15 ${sigma_FF}
pair_coeff 1 1 0.15 3.15
pair_coeff 1 2 ${epsilon_FS} ${sigma_FS}
pair_coeff 1 2 0.09 ${sigma_FS}
pair_coeff 1 2 0.09 3.15
pair_coeff 2 2 0 0

# For bonds, angles and dihedrals
bond_style harmonic
bond_coeff 1 ${bond_constant} ${bond_length}
bond_coeff 1 0.544217 ${bond_length}
bond_coeff 1 0.544217 3.5357554521765
angle_style harmonic
angle_coeff 1 ${angle_constant} ${bond_angle}
angle_coeff 1 5 ${bond_angle}
angle_coeff 1 5 110
dihedral_style charmm
dihedral_coeff 1 ${dihedral_coeff_k} ${dihedral_coeff_n} ${dihedral_coeff_d} 0.0
dihedral_coeff 1 -2.8 ${dihedral_coeff_n} ${dihedral_coeff_d} 0.0
dihedral_coeff 1 -2.8 1 ${dihedral_coeff_d} 0.0
dihedral_coeff 1 -2.8 1 -7 0.0

#######################################################
# Define computes, thermo_style, timestep and create velocity:
#######################################################

# Compute thermodynamic quantities and bonds. Define thermo_style
compute tempLJ LJFLUID temp
compute binvel all chunk/atom bin/1d z lower ${bin_width} nchunk once
compute binvel all chunk/atom bin/1d z lower 1.83333333333333 nchunk once
compute binvel_sigmafl LJFLUID chunk/atom bin/1d z lower ${bin_width_sigmafl} nchunk once
compute binvel_sigmafl LJFLUID chunk/atom bin/1d z lower 0.1375 nchunk once
compute bondinfo all property/local batom1 batom2 btype
compute FS_upper UPPER_SOLID group/group LJFLUID
compute FS_lower LOWER_SOLID group/group LJFLUID
thermo ${thermonum}
thermo 1000
thermo_style custom step c_tempLJ pe epair ke etotal press
neigh_modify delay 1

#######################################################
# Relax the system using nve/limit:
#######################################################
velocity LJFLUID create ${T} 1 rot yes dist gaussian
velocity LJFLUID create 250 1 rot yes dist gaussian
timestep 5

fix relax_fluid LJFLUID nve/limit 0.05
run 5000
Generated 0 of 1 mixed pair_coeff terms from geometric mixing rule
Neighbor list info ...
  update every 1 steps, delay 1 steps, check yes
  max neighbors/atom: 2000, page size: 100000
  master list distance cutoff = 12
  ghost atom cutoff = 12
  binsize = 6, bins = 6 6 10
  3 neighbor lists, perpetual/occasional/extra = 1 2 0
  (1) pair lj/cut, perpetual
      attributes: half, newton on
      pair build: half/bin/newton
      stencil: half/bin/3d
      bin: standard
  (2) compute group/group, occasional, copy from (1)
      attributes: half, newton on
      pair build: copy
      stencil: none
      bin: none
  (3) compute group/group, occasional, copy from (1)
      attributes: half, newton on
      pair build: copy
      stencil: none
      bin: none
Per MPI rank memory allocation (min/avg/max) = 7.579 | 7.589 | 7.598 Mbytes
   Step        c_tempLJ        PotEng         E_pair         KinEng         TotEng         Press     
         0   250           -3308.1762     -844.63576      912.12788     -2396.0483      1764.9108    
      1000   119.18667     -3389.6637     -933.72021      434.85395     -2954.8098      413.64589    
      2000   104.30121     -3452.7705     -950.928        380.54417     -3072.2264      288.20859    
      3000   99.824469     -3493.3707     -963.96382      364.21072     -3129.16        218.46729    
      4000   94.220163     -3513.1347     -975.8073       343.76335     -3169.3713      157.0637     
      5000   89.229475     -3518.0659     -968.19185      325.55477     -3192.5111      153.22977    
Loop time of 5.19373 on 4 procs for 5000 steps with 1949 atoms

Performance: 415.886 ns/day, 0.058 hours/ns, 962.699 timesteps/s
98.3% CPU use with 4 MPI tasks x no OpenMP threads

MPI task timing breakdown:
Section |  min time  |  avg time  |  max time  |%varavg| %total
---------------------------------------------------------------
Pair    | 3.1622     | 3.5616     | 4.0699     |  19.3 | 68.58
Bond    | 0.11449    | 0.13044    | 0.14161    |   3.0 |  2.51
Neigh   | 0.53556    | 0.53588    | 0.53623    |   0.0 | 10.32
Comm    | 0.37627    | 0.89545    | 1.2989     |  39.5 | 17.24
Output  | 0.00017743 | 0.00019995 | 0.00023689 |   0.0 |  0.00
Modify  | 0.019019   | 0.020915   | 0.022653   |   1.1 |  0.40
Other   |            | 0.04924    |            |       |  0.95

Nlocal:         487.25 ave         528 max         439 min
Histogram: 1 0 0 0 1 0 1 0 0 1
Nghost:        2271.25 ave        2393 max        2137 min
Histogram: 1 1 0 0 0 0 0 0 0 2
Neighs:          51752 ave       57560 max       45513 min
Histogram: 1 0 0 1 0 0 0 1 0 1

Total # of neighbors = 207008
Ave neighs/atom = 106.21242
Ave special neighs/atom = 2.2626988
Neighbor list builds = 233
Dangerous builds = 0

unfix relax_fluid

#######################################################
# Steady state for initial forces and temperature:
#######################################################
timestep 0.5
fix temp_steady_state LJFLUID nvt temp ${T} ${T} 5000
fix temp_steady_state LJFLUID nvt temp 250 ${T} 5000
fix temp_steady_state LJFLUID nvt temp 250 250 5000
run 50000
Generated 0 of 1 mixed pair_coeff terms from geometric mixing rule
Per MPI rank memory allocation (min/avg/max) = 7.579 | 7.589 | 7.598 Mbytes
   Step        c_tempLJ        PotEng         E_pair         KinEng         TotEng         Press     
      5000   89.229475     -3518.0659     -968.19185      325.55477     -3192.5111      153.22977    
      6000   90.812165     -3521.8288     -972.28034      331.32923     -3190.4995      124.49844    
      7000   92.016731     -3520.3333     -976.26773      335.7241      -3184.6092      103.4508     
      8000   89.653891     -3504.0282     -976.21847      327.10325     -3176.9249      89.912698    
      9000   92.500731     -3507.4574     -974.39459      337.48998     -3169.9674      124.04029    
     10000   93.820084     -3505.5049     -968.16339      342.30365     -3163.2012      171.58676    
     11000   94.449793     -3500.0244     -973.09729      344.60116     -3155.4232      148.44214    
     12000   98.466917     -3506.0232     -975.01577      359.25768     -3146.7656      163.93132    
     13000   99.396851     -3499.7583     -970.19664      362.65055     -3137.1077      179.19135    
     14000   100.18618     -3492.7361     -967.65388      365.53043     -3127.2057      222.60681    
     15000   99.802675     -3480.8193     -956.67496      364.13121     -3116.6881      298.73731    
     16000   101.70384     -3476.9706     -963.53608      371.06763     -3105.903       209.78131    
     17000   106.27184     -3482.5256     -962.31241      387.73405     -3094.7915      243.41029    
     18000   104.85783     -3465.7318     -954.42334      382.575       -3083.1568      304.14229    
     19000   105.88357     -3457.6063     -948.36206      386.31741     -3071.2889      350.4339     
     20000   105.14086     -3442.5073     -954.87829      383.60764     -3058.8997      246.24231    
     21000   112.15369     -3455.4673     -956.3082       409.19403     -3046.2733      287.02801    
     22000   111.53598     -3440.193      -938.89316      406.94031     -3033.2527      422.6805     
     23000   116.53101     -3445.1802     -949.52285      425.16475     -3020.0154      328.74145    
     24000   117.02742     -3433.1631     -945.26261      426.97588     -3006.1872      353.00526    
     25000   118.1978      -3423.459      -941.35106      431.24605     -2992.213       444.89112    
     26000   118.93652     -3411.9517     -939.09433      433.94127     -2978.0104      420.42187    
     27000   121.37604     -3406.0698     -926.00387      442.84186     -2963.2279      500.68643    
     28000   119.74148     -3385.4593     -918.23377      436.87818     -2948.5811      533.67704    
     29000   127.04987     -3397.1003     -927.28968      463.5429      -2933.5574      476.75184    
     30000   124.70066     -3373.3791     -936.0174       454.97179     -2918.4073      424.62206    
     31000   127.61299     -3368.1199     -913.61971      465.59746     -2902.5224      609.37897    
     32000   129.92429     -3360.6112     -924.58889      474.03027     -2886.5809      495.25188    
     33000   132.004       -3352.012      -907.14534      481.61811     -2870.3939      649.54674    
     34000   131.25952     -3332.7792     -900.44814      478.90185     -2853.8773      648.00628    
     35000   139.28802     -3345.2841     -904.93641      508.19394     -2837.0902      691.84234    
     36000   142.33358     -3339.2604     -914.5731       519.30572     -2819.9547      603.28211    
     37000   146.5224      -3337.1776     -908.03978      534.58868     -2802.5889      662.87093    
     38000   144.51413     -3311.8808     -896.96667      527.26147     -2784.6194      698.33318    
     39000   147.53294     -3305.2926     -892.50809      538.27563     -2767.0169      764.08849    
     40000   150.83715     -3299.1286     -880.71204      550.33107     -2748.7975      787.8979     
     41000   151.87755     -3284.796      -888.72703      554.12698     -2730.6691      816.14139    
     42000   153.41803     -3271.8666     -891.8649       559.74746     -2712.1192      751.06102    
     43000   158.24597     -3270.7005     -885.92901      577.36224     -2693.3382      830.3712     
     44000   164.7237      -3275.2201     -888.75784      600.99631     -2674.2238      787.69153    
     45000   160.22578     -3239.7109     -878.33352      584.58561     -2655.1253      818.2079     
     46000   162.55515     -3229.0905     -866.68168      593.08432     -2636.0062      905.25661    
     47000   169.62742     -3235.3989     -864.31173      618.8876      -2616.5113      931.34355    
     48000   174.44036     -3233.0618     -860.76093      636.44765     -2596.6142      974.44525    
     49000   173.12639     -3208.4974     -861.74084      631.65362     -2576.8437      946.44136    
     50000   174.5321      -3193.7665     -863.3844       636.78237     -2556.9841      965.4195     
     51000   182.22889     -3201.4933     -856.94324      664.86421     -2536.6291      1016.5279    
     52000   182.73878     -3183.0958     -854.77272      666.72454     -2516.3713      991.21057    
     53000   185.4095      -3172.4032     -843.30221      676.46869     -2495.9345      1075.4888    
     54000   186.45413     -3155.9851     -861.18544      680.28003     -2475.705       996.50309    
     55000   186.94135     -3137.2618     -833.09041      682.05766     -2455.2042      1188.3563    
WARNING: Bond/angle/dihedral extent > half of periodic box length (../domain.cpp:940)
Loop time of 45.7336 on 4 procs for 50000 steps with 1949 atoms

Performance: 47.230 ns/day, 0.508 hours/ns, 1093.289 timesteps/s
97.8% CPU use with 4 MPI tasks x no OpenMP threads

MPI task timing breakdown:
Section |  min time  |  avg time  |  max time  |%varavg| %total
---------------------------------------------------------------
Pair    | 30.222     | 34.257     | 39.249     |  63.7 | 74.90
Bond    | 1.1034     | 1.2667     | 1.3801     |  10.4 |  2.77
Neigh   | 0.65893    | 0.65933    | 0.65978    |   0.0 |  1.44
Comm    | 3.5021     | 8.5858     | 12.654     | 130.3 | 18.77
Output  | 0.0011861  | 0.0013425  | 0.001723   |   0.6 |  0.00
Modify  | 0.43806    | 0.46213    | 0.48948    |   3.1 |  1.01
Other   |            | 0.5016     |            |       |  1.10

Nlocal:         487.25 ave         537 max         439 min
Histogram: 1 0 0 1 0 0 1 0 0 1
Nghost:           2295 ave        2416 max        2168 min
Histogram: 1 1 0 0 0 0 0 0 0 2
Neighs:        51789.2 ave       58638 max       45923 min
Histogram: 1 0 1 0 0 0 1 0 0 1

Total # of neighbors = 207157
Ave neighs/atom = 106.28887
Ave special neighs/atom = 2.2626988
Neighbor list builds = 299
Dangerous builds = 0

unfix temp_steady_state

#######################################################
# Steady state for solid walls:
#######################################################

timestep ${tstep}
timestep 1
fix temp_steady_state LJFLUID nvt temp ${T} ${T} 5000
fix temp_steady_state LJFLUID nvt temp 250 ${T} 5000
fix temp_steady_state LJFLUID nvt temp 250 250 5000

# fix temp_steady_state LJFLUID rigid/nvt molecule temp ${T} ${T} 5000
fix upperwall_fix UPPER_SOLID move linear ${halfshear} 0 0
fix upperwall_fix UPPER_SOLID move linear 0.0017 0 0
fix lowerwall_fix LOWER_SOLID move linear -${halfshear} 0 0
fix lowerwall_fix LOWER_SOLID move linear -0.0017 0 0

run 100000
Generated 0 of 1 mixed pair_coeff terms from geometric mixing rule
WARNING: Bond/angle/dihedral extent > half of periodic box length (../domain.cpp:940)
Per MPI rank memory allocation (min/avg/max) = 8.329 | 8.339 | 8.349 Mbytes
   Step        c_tempLJ        PotEng         E_pair         KinEng         TotEng         Press     
     55000   186.94135     -3137.2618     -833.09041      682.05766     -2455.2042      1188.3563    
     56000   187.76075     -3132.1423     -828.82189      715.05241     -2417.0898      1248.836     
     57000   194.99036     -3141.0953     -839.00715      741.42972     -2399.6656      1233.7406    
     58000   194.54982     -3117.1759     -830.0414       739.8224      -2377.3535      1238.2933    
     59000   201.72284     -3127.9282     -852.94921      765.99325     -2361.935       1087.6197    
     60000   198.51302     -3095.6327     -830.86604      754.28221     -2341.3505      1237.4892    
     61000   203.84049     -3091.068      -817.41454      773.71954     -2317.3484      1309.0356    
     62000   205.08266     -3071.9295     -816.87293      778.25159     -2293.6779      1301.7649    
     63000   208.70626     -3062.1324     -822.04276      791.47236     -2270.6601      1297.8846    
     64000   218.72409     -3074.3965     -830.20676      828.02252     -2246.374       1261.4515    
     65000   220.85495     -3058.395      -829.19403      835.79698     -2222.598       1247.051     
     66000   228.51313     -3057.9072     -823.2549       863.73795     -2194.1692      1366.4055    
     67000   230.27028     -3036.7615     -820.26326      870.14893     -2166.6126      1415.1873    
     68000   232.51481     -3019.9809     -793.08173      878.33811     -2141.6428      1507.7326    
     69000   231.54368     -2990.54       -801.51673      874.79495     -2115.745       1397.6206    
     70000   239.47145     -2993.5185     -806.43467      903.71949     -2089.799       1441.2201    
     71000   237.16019     -2959.1975     -801.64559      895.28684     -2063.9107      1471.7925    
     72000   244.31924     -2962.1211     -803.98521      921.40672     -2040.7144      1418.9814    
     73000   247.28002     -2950.7241     -801.34851      932.20917     -2018.5149      1477.9545    
     74000   235.70657     -2888.0206     -769.93678      889.98328     -1998.0374      1611.9816    
     75000   256.38795     -2945.8691     -765.53064      965.43956     -1980.4296      1744.8295    
     76000   254.85579     -2924.7063     -766.93525      959.84945     -1964.8568      1720.7723    
     77000   253.80496     -2907.292      -766.1231       956.01548     -1951.2765      1747.4856    
     78000   248.77454     -2875.8454     -764.50345      937.66192     -1938.1835      1624.8265    
     79000   265.57663     -2929.1669     -784.87888      998.96454     -1930.2024      1613.1916    
     80000   255.01718     -2885.6288     -767.80488      960.43828     -1925.1905      1690.3903    
     81000   259.49856     -2897.4246     -796.80818      976.78866     -1920.6359      1567.1065    
     82000   250.98418     -2865.0458     -756.99308      945.72382     -1919.322       1724.2394    
     83000   262.0668      -2906.3211     -779.11567      986.1589      -1920.1622      1579.1934    
     84000   256.18443     -2886.0122     -764.15001      964.69701     -1921.3152      1693.4154    
     85000   260.46595     -2907.9514     -778.9664       980.31819     -1927.6332      1608.2335    
     86000   260.18099     -2913.7647     -794.85313      979.27851     -1934.4862      1496.3281    
     87000   257.37266     -2911.7264     -782.22239      969.03227     -1942.6941      1601.7642    
     88000   254.0336      -2911.8998     -778.8569       956.84968     -1955.0502      1623.0399    
     89000   249.66122     -2904.622      -768.79984      940.89698     -1963.725       1632.4947    
     90000   252.43618     -2921.0781     -779.17346      951.02147     -1970.0567      1551.8265    
     91000   253.97018     -2935.0466     -792.69647      956.61828     -1978.4283      1512.0401    
     92000   246.38066     -2915.5246     -774.56912      928.92785     -1986.5967      1624.9903    
     93000   246.81765     -2924.9653     -758.52257      930.52219     -1994.4431      1754.8731    
     94000   250.76441     -2950.3416     -772.67633      944.92201     -2005.4196      1672.2064    
     95000   245.82872     -2937.3749     -788.5501       926.91406     -2010.4609      1515.7234    
     96000   242.16681     -2928.6724     -801.16978      913.55355     -2015.1189      1384.6143    
     97000   242.5186      -2934.2448     -790.31584      914.83708     -2019.4078      1473.6657    
     98000   243.27293     -2937.0767     -792.52186      917.58923     -2019.4875      1503.614     
     99000   246.46673     -2947.2074     -788.46632      929.24186     -2017.9656      1526.166     
    100000   244.47438     -2936.2435     -794.04444      921.97276     -2014.2708      1495.2198    
    101000   246.01031     -2937.5972     -776.30789      927.57662     -2010.0206      1632.6582    
    102000   243.20543     -2919.3105     -769.89252      917.34296     -2001.9675      1627.9868    
    103000   247.03172     -2922.6067     -768.15102      931.30323     -1991.3035      1688.7458    
    104000   250.9904      -2926.852      -783.3054       945.74651     -1981.1055      1578.0229    
    105000   248.66649     -2908.2884     -778.19178      937.26772     -1971.0207      1580.6798    
    106000   246.66223     -2890.9078     -776.33192      929.95514     -1960.9527      1574.3367    
    107000   252.08489     -2901.2466     -786.19553      949.73978     -1951.5068      1498.1001    
    108000   248.69645     -2881.396      -780.92715      937.37701     -1944.019       1579.0992    
    109000   254.5547      -2896.3737     -776.63469      958.7509      -1937.6228      1579.4838    
    110000   256.84985     -2899.0033     -775.57715      967.1248      -1931.8785      1599.2818    
    111000   255.17356     -2886.1481     -750.77309      961.00883     -1925.1392      1811.8918    
    112000   262.95648     -2911.7953     -766.41631      989.40489     -1922.3904      1752.8468    
    113000   259.52597     -2898.0996     -791.34588      976.88866     -1921.2109      1511.7025    
    114000   254.52349     -2882.0282     -774.42956      958.63704     -1923.3912      1637.5188    
    115000   254.77538     -2886.3473     -778.41851      959.55608     -1926.7912      1576.8099    
    116000   265.35138     -2928.9517     -793.46322      998.14273     -1930.809       1617.7846    
    117000   254.09269     -2895.3707     -796.36896      957.06528     -1938.3054      1538.1337    
    118000   247.24679     -2879.4611     -774.56227      932.08792     -1947.3731      1559.0136    
    119000   251.72653     -2905.1077     -776.28862      948.4323      -1956.6754      1644.8249    
    120000   247.94199     -2899.9605     -786.75896      934.62435     -1965.3362      1552.4137    
    121000   247.65556     -2905.9318     -757.09772      933.57934     -1972.3525      1733.3644    
    122000   246.37469     -2907.7797     -786.81605      928.90604     -1978.8737      1512.4717    
    123000   245.20358     -2910.6588     -778.50976      924.63325     -1986.0256      1576.3562    
    124000   243.15279     -2908.7297     -777.08482      917.15092     -1991.5788      1611.3488    
    125000   244.50546     -2916.1581     -768.10503      922.08615     -1994.0719      1636.8834    
    126000   243.13639     -2914.3206     -799.43309      917.09108     -1997.2296      1432.5475    
    127000   246.45234     -2926.7513     -796.2218       929.18936     -1997.5619      1535.1768    
    128000   246.50064     -2926.17       -787.69518      929.36559     -1996.8044      1538.5886    
    129000   248.90347     -2933.8369     -789.7479       938.13233     -1995.7046      1501.6605    
    130000   248.10542     -2926.6819     -773.77303      935.22066     -1991.4612      1606.1429    
    131000   246.96773     -2918.8301     -789.18725      931.06976     -1987.7603      1587.3804    
    132000   248.5379      -2919.1647     -789.81417      936.79854     -1982.3661      1553.8618    
    133000   249.16482     -2914.9452     -795.07407      939.08589     -1975.8593      1475.0368    
    134000   247.16757     -2897.6056     -769.63199      931.79887     -1965.8067      1625.0735    
    135000   245.46107     -2882.558      -773.42916      925.57269     -1956.9853      1616.5314    
    136000   258.05446     -2919.7708     -767.27587      971.51982     -1948.251       1705.153     
    137000   250.81745     -2887.0054     -776.96274      945.1155      -1941.8899      1595.5086    
    138000   260.02404     -2913.7544     -776.98371      978.70587     -1935.0485      1597.522     
    139000   257.06591     -2900.9555     -763.35932      967.9131      -1933.0424      1686.8529    
    140000   247.44208     -2863.6061     -756.23801      932.80044     -1930.8056      1702.1561    
    141000   256.9995      -2895.186      -769.58859      967.6708      -1927.5152      1616.7554    
    142000   256.76558     -2891.27       -786.48713      966.81735     -1924.4527      1498.6661    
    143000   252.91178     -2879.0694     -784.27426      952.75668     -1926.3128      1555.9191    
    144000   248.9584      -2867.5078     -757.15412      938.33275     -1929.175       1727.3195    
    145000   252.80103     -2888.1473     -771.49022      952.35262     -1935.7946      1693.1154    
    146000   251.31293     -2892.6895     -754.78821      946.92327     -1945.7662      1779.7686    
    147000   252.71735     -2910.472      -794.77866      952.04731     -1958.4247      1515.774     
    148000   244.35874     -2891.6425     -765.16862      921.55083     -1970.0917      1711.2881    
    149000   253.15418     -2932.3207     -801.81611      953.64109     -1978.6796      1484.8192    
    150000   242.48035     -2897.8346     -778.34809      914.6975      -1983.1371      1570.6475    
    151000   249.42909     -2927.0013     -770.39982      940.05006     -1986.9513      1637.1328    
    152000   248.28934     -2927.6541     -783.44128      935.89168     -1991.7624      1561.0612    
    153000   247.86166     -2927.7044     -791.41731      934.33128     -1993.3731      1457.7022    
    154000   246.3044      -2922.7611     -776.64963      928.64958     -1994.1116      1583.8807    
    155000   246.83335     -2923.1471     -781.85089      930.57949     -1992.5676      1566.8252    
WARNING: Bond/angle/dihedral extent > half of periodic box length (../domain.cpp:940)
Loop time of 98.0244 on 4 procs for 100000 steps with 1949 atoms

Performance: 88.141 ns/day, 0.272 hours/ns, 1020.154 timesteps/s
97.6% CPU use with 4 MPI tasks x no OpenMP threads

MPI task timing breakdown:
Section |  min time  |  avg time  |  max time  |%varavg| %total
---------------------------------------------------------------
Pair    | 61.11      | 69.871     | 80.815     |  99.8 | 71.28
Bond    | 2.2035     | 2.5861     | 2.8695     |  17.5 |  2.64
Neigh   | 3.8248     | 3.8277     | 3.8303     |   0.1 |  3.90
Comm    | 7.8056     | 18.953     | 27.782     | 196.2 | 19.33
Output  | 0.0026352  | 0.0029598  | 0.0037842  |   0.9 |  0.00
Modify  | 1.489      | 1.561      | 1.6107     |   3.8 |  1.59
Other   |            | 1.224      |            |       |  1.25

Nlocal:         487.25 ave         541 max         436 min
Histogram: 1 0 0 1 0 1 0 0 0 1
Nghost:           2301 ave        2428 max        2175 min
Histogram: 2 0 0 0 0 0 0 0 0 2
Neighs:        51675.8 ave       59112 max       44790 min
Histogram: 1 0 1 0 0 0 1 0 0 1

Total # of neighbors = 206703
Ave neighs/atom = 106.05593
Ave special neighs/atom = 2.2626988
Neighbor list builds = 1664
Dangerous builds = 0

unfix temp_steady_state

#######################################################
# Final run and gather data:
#######################################################
compute msd_ljfluid LJFLUID msd com yes

fix nvt_data_run LJFLUID nvt temp ${T} ${T} 25000
fix nvt_data_run LJFLUID nvt temp 250 ${T} 25000
fix nvt_data_run LJFLUID nvt temp 250 250 25000

fix binvelocity_data all ave/chunk 1 3500 3500 binvel vx file VelProfile_${hundredthousandtimeshalfshear}_${dens}_${T}K.txt
fix binvelocity_data all ave/chunk 1 3500 3500 binvel vx file VelProfile_170_${dens}_${T}K.txt
fix binvelocity_data all ave/chunk 1 3500 3500 binvel vx file VelProfile_170_0.85_${T}K.txt
fix binvelocity_data all ave/chunk 1 3500 3500 binvel vx file VelProfile_170_0.85_250K.txt

fix ncount_data LJFLUID ave/chunk 1 175000 175000 binvel_sigmafl vx file Ncount_${hundredthousandtimeshalfshear}_${dens}_${T}K.txt
fix ncount_data LJFLUID ave/chunk 1 175000 175000 binvel_sigmafl vx file Ncount_170_${dens}_${T}K.txt
fix ncount_data LJFLUID ave/chunk 1 175000 175000 binvel_sigmafl vx file Ncount_170_0.85_${T}K.txt
fix ncount_data LJFLUID ave/chunk 1 175000 175000 binvel_sigmafl vx file Ncount_170_0.85_250K.txt

fix thermo_data all print 1000 "$(step) $(c_tempLJ) $(pe) $(ke) $(etotal) $(press)" file slipeq_run.txt screen no title "Time-step Temperature PE KE TE Pressure"

fix pressure_XZ_data all print 3500 "$(step) $(c_tempLJ) $(pxz)" file pxz_slipeq_run.txt screen no title "Time-step Temperature Pxz"

fix forces_walls_fluid_data all print 3500 "$(step) $(c_FS_upper[1]) $(c_FS_lower[1])" file forces_FS_slipeq_run.txt screen no title "Time-step Force_Upper Force_Lower"

fix msd_ljfluid_data all print 70000 "$(step) $(c_msd_ljfluid[1]) $(c_msd_ljfluid[2]) $(c_msd_ljfluid[3]) $(c_msd_ljfluid[4])" file MSD_${dens}_${epsilon_FF}_${T}K.txt screen no title "Time-step MSD_X MSD_Y MSD_Z MSD"
fix msd_ljfluid_data all print 70000 "$(step) $(c_msd_ljfluid[1]) $(c_msd_ljfluid[2]) $(c_msd_ljfluid[3]) $(c_msd_ljfluid[4])" file MSD_0.85_${epsilon_FF}_${T}K.txt screen no title "Time-step MSD_X MSD_Y MSD_Z MSD"
fix msd_ljfluid_data all print 70000 "$(step) $(c_msd_ljfluid[1]) $(c_msd_ljfluid[2]) $(c_msd_ljfluid[3]) $(c_msd_ljfluid[4])" file MSD_0.85_0.15_${T}K.txt screen no title "Time-step MSD_X MSD_Y MSD_Z MSD"
fix msd_ljfluid_data all print 70000 "$(step) $(c_msd_ljfluid[1]) $(c_msd_ljfluid[2]) $(c_msd_ljfluid[3]) $(c_msd_ljfluid[4])" file MSD_0.85_0.15_250K.txt screen no title "Time-step MSD_X MSD_Y MSD_Z MSD"

dump trajectory_file all atom 70000 LJLAYERS_${dens}_${epsilon_FF}_${T}K.lammpstrj
dump trajectory_file all atom 70000 LJLAYERS_0.85_${epsilon_FF}_${T}K.lammpstrj
dump trajectory_file all atom 70000 LJLAYERS_0.85_0.15_${T}K.lammpstrj
dump trajectory_file all atom 70000 LJLAYERS_0.85_0.15_250K.lammpstrj
dump bonds_data all local 70000 bond_information.lammpstrj c_bondinfo[1] c_bondinfo[2] c_bondinfo[3]


run 3500000
Generated 0 of 1 mixed pair_coeff terms from geometric mixing rule
WARNING: Bond/angle/dihedral extent > half of periodic box length (../domain.cpp:940)
Per MPI rank memory allocation (min/avg/max) = 8.955 | 8.964 | 8.974 Mbytes
   Step        c_tempLJ        PotEng         E_pair         KinEng         TotEng         Press     
    155000   246.83335     -2923.1471     -781.85089      930.57949     -1992.5676      1566.8252    
    156000   247.29842     -2923.3947     -788.00032      932.2763      -1991.1184      1533.9236    
    157000   249.73298     -2931.5134     -792.11627      941.15883     -1990.3546      1520.7135    
    158000   245.73358     -2914.9072     -782.62105      926.56697     -1988.3403      1507.9344    
    159000   251.12395     -2933.1583     -787.25034      946.23378     -1986.9246      1612.2721    
    160000   252.91702     -2938.9834     -789.68         952.77581     -1986.2076      1550.7319    
    161000   245.68294     -2910.6272     -766.06687      926.3822      -1984.245       1694.4048    
    162000   243.20521     -2900.6079     -774.48202      917.34218     -1983.2658      1602.1221    
    163000   248.71358     -2916.7168     -767.89336      937.43952     -1979.2773      1723.7568    
    164000   254.27727     -2937.2151     -779.28262      957.73871     -1979.4763      1619.3723    
    165000   251.09691     -2922.9989     -776.97986      946.13513     -1976.8638      1567.2232    
    166000   252.44491     -2924.1337     -792.6531       951.05331     -1973.0804      1548.512     
    167000   247.03068     -2901.6        -780.95259      931.29945     -1970.3006      1530.5989    
    168000   245.69267     -2896.4744     -772.46876      926.41768     -1970.0568      1612.128     
    169000   245.41713     -2893.9317     -779.07815      925.41237     -1968.5193      1583.9332    
    170000   245.07951     -2889.759      -765.49121      924.18057     -1965.5784      1625.4181    
    171000   242.71273     -2881.3328     -770.11131      915.54536     -1965.7874      1595.9745    
    172000   264.77121     -2959.8719     -803.23391      996.02598     -1963.846       1518.701     
    173000   247.56992     -2896.7052     -798.77966      933.26687     -1963.4383      1450.0214    
    174000   254.57311     -2916.9707     -789.27467      958.81807     -1958.1527      1541.3741    
    175000   254.46323     -2915.4506     -784.0775       958.41718     -1957.0334      1569.6194    
    176000   255.65297     -2918.2304     -788.00669      962.75796     -1955.4725      1539.339     
    177000   263.08726     -2943.3057     -772.67692      989.88205     -1953.4236      1699.4332    
    178000   255.71916     -2913.7183     -768.03782      962.99946     -1950.7189      1697.0153    
    179000   253.70391     -2903.6351     -773.95519      955.64679     -1947.9883      1642.4847    
    180000   259.66551     -2921.1022     -769.5585       977.39776     -1943.7044      1670.31      
    181000   243.97433     -2861.9131     -770.59766      920.1483      -1941.7648      1638.2944    
    182000   248.97695     -2880.3567     -774.26894      938.40042     -1941.9563      1573.3991    
    183000   258.40169     -2913.4953     -771.9074       972.7867      -1940.7086      1635.4795    
    184000   253.1521      -2892.0906     -795.68714      953.6335      -1938.4571      1515.9936    
    185000   253.8553      -2892.4346     -757.37196      956.19914     -1936.2355      1734.6554    
    186000   258.71655     -2908.4047     -782.26975      973.93547     -1934.4692      1595.8282    
    187000   255.48188     -2893.7337     -790.55335      962.13375     -1931.6         1509.0187    
    188000   262.71376     -2920.2661     -783.9236       988.51932     -1931.7468      1618.0753    
    189000   264.41138     -2926.1895     -772.99925      994.71312     -1931.4763      1728.4159    
    190000   256.216       -2894.461      -782.15464      964.8122      -1929.6488      1600.7697    
    191000   253.55868     -2882.259      -786.38234      955.11693     -1927.142       1559.1138    
    192000   253.8877      -2880.6342     -762.50895      956.31734     -1924.3168      1681.4311    
    193000   255.24349     -2885.7193     -764.3521       961.26396     -1924.4554      1709.3019    
    194000   250.46233     -2865.2055     -770.2897       943.81986     -1921.3857      1613.7743    
    195000   252.96455     -2873.4813     -779.83024      952.94924     -1920.5321      1620.8431    
    196000   257.10309     -2888.6797     -781.95162      968.04873     -1920.631       1622.5196    
    197000   263.45177     -2908.7669     -766.82489      991.21198     -1917.5549      1725.1541    
    198000   266.32807     -2916.3332     -772.05306      1001.7062     -1914.627       1681.3547    
    199000   258.10048     -2888.1398     -781.20481      971.68771     -1916.4521      1616.9545    
    200000   249.21548     -2854.7177     -758.03782      939.2707      -1915.447       1668.3444    
    201000   256.55283     -2882.0356     -784.25887      966.0411      -1915.9945      1537.3889    
    202000   256.15693     -2881.0701     -770.33208      964.59666     -1916.4735      1633.9077    
    203000   262.99367     -2904.3652     -789.25493      989.5406      -1914.8246      1514.0316    
    204000   258.833       -2890.224      -763.3093       974.36034     -1915.8637      1674.8024    
    205000   253.96291     -2872.3153     -756.18765      956.59177     -1915.7236      1683.8364    
    206000   257.8373      -2887.6487     -773.52553      970.72753     -1916.9212      1698.1406    
    207000   251.89723     -2865.5002     -765.25762      949.05509     -1916.4451      1646.4875    
    208000   255.45309     -2879.3969     -764.34412      962.02871     -1917.3682      1695.5522    
    209000   258.46693     -2890.3248     -788.88796      973.02473     -1917.3001      1550.1128    
    210000   251.43523     -2864.6732     -758.53143      947.36951     -1917.3037      1710.4902    
    211000   254.53342     -2877.9202     -772.71831      958.67328     -1919.2469      1645.0206    
    212000   255.22199     -2881.1653     -758.51364      961.18553     -1919.9797      1694.6866    
    213000   262.63679     -2910.9413     -788.07466      988.23852     -1922.7028      1583.2695    
    214000   260.49791     -2903.7917     -760.76136      980.43478     -1923.3569      1712.63      
    215000   253.59886     -2878.8722     -781.38035      955.26353     -1923.6086      1518.7251    
    216000   252.67303     -2876.573      -767.29415      951.8856      -1924.6874      1674.691     
    217000   251.65833     -2876.4174     -768.88801      948.18348     -1928.2339      1637.6517    
    218000   257.29716     -2897.665      -780.26123      968.7568      -1928.9082      1606.6473    
    219000   261.38747     -2914.5758     -766.30811      983.68034     -1930.8954      1696.0123    
    220000   260.41107     -2911.415      -785.22922      980.11795     -1931.297       1623.3677    
    221000   255.75311     -2896.856      -753.99498      963.12332     -1933.7327      1758.9083    
    222000   254.07324     -2891.9771     -763.42726      956.9943      -1934.9828      1759.3214    
    223000   262.62301     -2922.8058     -789.17102      988.18823     -1934.6175      1568.0795    
    224000   255.89612     -2901.3241     -773.60314      963.6451      -1937.679       1629.776     
    225000   251.59141     -2886.0035     -762.75342      947.9393      -1938.0642      1663.6533    
    226000   251.77386     -2885.0801     -756.49129      948.60499     -1936.4751      1659.0048    
    227000   250.07417     -2879.2089     -781.08132      942.40363     -1936.8053      1549.9748    
    228000   242.16752     -2850.1126     -753.25794      913.55614     -1936.5565      1703.6532    
    229000   262.18905     -2922.5379     -779.92267      986.60494     -1935.933       1547.7028    
    230000   247.47581     -2868.5042     -766.48687      932.92349     -1935.5807      1633.2922    
    231000   252.87125     -2889.101      -794.39822      952.60884     -1936.4922      1466.0191    
    232000   255.76827     -2900.2139     -774.68866      963.17862     -1937.0353      1618.8737    
    233000   245.31999     -2862.1038     -760.95148      925.05796     -1937.0459      1583.4519    
    234000   253.02718     -2892.3959     -770.21899      953.17776     -1939.2181      1650.8078    
    235000   259.10599     -2915.3645     -757.7934       975.35635     -1940.0081      1787.4601    
    236000   255.01298     -2901.093      -769.73676      960.42295     -1940.6701      1648.0059    
    237000   254.43707     -2900.111      -781.34808      958.32174     -1941.7892      1627.0645    
    238000   250.21305     -2884.5658     -781.03147      942.91036     -1941.6554      1559.0564    
    239000   253.16577     -2896.0864     -789.15464      953.6834      -1942.403       1515.348     
    240000   259.82029     -2920.9857     -784.66666      977.96249     -1943.0232      1609.7159    
    241000   256.27429     -2905.6117     -778.30271      965.02486     -1940.5868      1627.7741    
    242000   252.29736     -2892.4382     -777.28013      950.51498     -1941.9232      1623.3175    
    243000   256.48915     -2907.9354     -776.50051      965.80878     -1942.1266      1607.888     
    244000   261.36604     -2926.1669     -786.48359      983.60216     -1942.5647      1610.0922    
    245000   251.26901     -2890.7663     -765.836        946.76305     -1944.0032      1638.55      
    246000   254.75092     -2906.5735     -768.64417      959.46681     -1947.1067      1653.8407    
    247000   248.50807     -2885.5165     -780.7443       936.68971     -1948.8267      1604.9404    
    248000   244.97071     -2874.3276     -761.01931      923.78362     -1950.544       1730.6855    
    249000   253.31122     -2905.9355     -779.51693      954.21406     -1951.7214      1601.809     
    250000   251.05091     -2896.15       -784.59006      945.9673      -1950.1827      1581.6923    
    251000   258.24442     -2921.8515     -784.19881      972.2129      -1949.6386      1563.1925    
    252000   246.83584     -2879.3798     -770.60563      930.58855     -1948.7912      1649.7681    
    253000   250.84505     -2894.5165     -776.73193      945.2162      -1949.3003      1608.5698    
    254000   251.1569      -2896.3093     -778.93669      946.35401     -1949.9553      1566.8343    
    255000   246.01901     -2877.3849     -774.7731       927.60835     -1949.7765      1635.2638    
    256000   258.73069     -2922.7269     -785.4976       973.98705     -1948.7399      1630.1859    
    257000   261.9985      -2935.5783     -779.36133      985.9097      -1949.6686      1707.6847    
    258000   256.12836     -2914.3144     -787.43405      964.49245     -1949.8219      1571.424     
    259000   254.26003     -2907.0691     -763.32363      957.67579     -1949.3934      1726.2058    
    260000   249.26141     -2888.7335     -775.17026      939.43827     -1949.2952      1583.8975    
    261000   257.22343     -2917.8338     -773.22335      968.48781     -1949.346       1562.7537    
    262000   247.81543     -2881.6483     -751.9003       934.1626      -1947.4857      1805.4233    
    263000   248.85086     -2887.8534     -801.94065      937.94038     -1949.9131      1429.0526    
    264000   256.31918     -2914.2425     -783.98788      965.18864     -1949.0539      1574.5368    
    265000   248.50797     -2884.4282     -756.62842      936.68934     -1947.7389      1687.2942    
    266000   254.70836     -2907.3354     -782.85371      959.31154     -1948.0238      1595.4389    
    267000   257.78109     -2918.9788     -773.31499      970.52242     -1948.4564      1660.4932    
    268000   256.01654     -2914.0233     -786.14116      964.08445     -1949.9389      1534.5766    
    269000   251.66852     -2897.6693     -778.92961      948.22063     -1949.4487      1651.5432    
    270000   253.7651      -2901.894      -760.76786      955.87004     -1946.024       1753.4987    
    271000   247.6082      -2879.135      -760.89521      933.40651     -1945.7285      1714.9576    
    272000   245.37978     -2871.4613     -762.18659      925.27612     -1946.1851      1669.4086    
    273000   250.47292     -2890.2939     -784.9775       943.8585      -1946.4354      1553.4118    
    274000   256.10078     -2912.5942     -777.94567      964.39179     -1948.2024      1631.854     
    275000   256.37675     -2913.6033     -781.33044      965.39868     -1948.2047      1610.6843    
    276000   250.78408     -2894.6979     -766.10624      944.99375     -1949.7041      1732.0935    
    277000   255.98175     -2916.8317     -764.45408      963.95751     -1952.8741      1709.7691    
    278000   260.45847     -2931.7258     -777.33917      980.2909      -1951.4349      1682.6904    
    279000   259.58222     -2930.3323     -791.38509      977.09389     -1953.2384      1533.319     
    280000   253.96818     -2908.8755     -786.69854      956.61097     -1952.2645      1586.525     
    281000   257.4637      -2921.2098     -785.76565      969.36445     -1951.8454      1562.0755    
    282000   243.55918     -2870.5187     -758.12283      918.63362     -1951.8851      1701.8862    
    283000   252.18585     -2901.5642     -757.17792      950.10815     -1951.4561      1740.2437    
    284000   253.42859     -2906.3908     -792.1799       954.64228     -1951.7486      1497.8409    
    285000   247.61585     -2885.4241     -785.36619      933.43442     -1951.9897      1518.8146    
    286000   251.82119     -2902.4715     -766.60166      948.77766     -1953.6938      1609.0245    
    287000   255.12867     -2914.7647     -779.09413      960.84503     -1953.9197      1595.1803    
    288000   255.98471     -2918.2462     -796.42442      963.96834     -1954.2779      1485.437     
    289000   252.89988     -2906.2828     -761.18138      952.71328     -1953.5695      1714.5497    
    290000   242.85548     -2869.8876     -761.05149      916.06616     -1953.8214      1701.3165    
    291000   245.19049     -2879.785      -781.90877      924.58547     -1955.1996      1537.8883    
    292000   251.46433     -2902.0516     -763.89487      947.47565     -1954.5759      1670.6835    
    293000   249.56206     -2897.9322     -776.75235      940.53521     -1957.397       1570.8909    
    294000   258.19373     -2929.3853     -791.77777      972.02794     -1957.3574      1567.8024    
    295000   247.56038     -2890.8569     -765.09635      933.23205     -1957.6249      1646.292     
    296000   254.0942      -2914.9035     -787.19609      957.07076     -1957.8327      1519.6003    
    297000   253.54461     -2914.1758     -779.44126      955.06559     -1959.1102      1591.1682    
    298000   255.49216     -2920.9849     -777.51295      962.17125     -1958.8136      1669.3779    
    299000   253.59159     -2914.4539     -802.55706      955.23698     -1959.2169      1477.9509    
    300000   252.10916     -2908.3461     -782.47566      949.82834     -1958.5177      1488.9497    
    301000   257.59358     -2927.0939     -802.7788       969.83831     -1957.2556      1447.7398    
    302000   250.63785     -2899.7897     -761.9217       944.46022     -1955.3295      1740.3636    
    303000   251.32706     -2901.8839     -752.09792      946.97485     -1954.909       1785.8499    
    304000   253.82139     -2913.2274     -791.76691      956.07544     -1957.152       1561.7935    
    305000   256.63998     -2923.7559     -777.15136      966.35908     -1957.3969      1658.9134    
    306000   244.92724     -2882.1533     -755.75961      923.625       -1958.5283      1713.5126    
    307000   242.25033     -2871.3678     -775.45406      913.85829     -1957.5095      1560.1271    
    308000   249.1082      -2896.4598     -780.01738      938.87929     -1957.5805      1607.0018    
    309000   251.51596     -2906.5515     -793.51409      947.66405     -1958.8875      1532.6139    
    310000   254.07115     -2916.9228     -786.36968      956.98669     -1959.9361      1586.2793    
    311000   251.14049     -2907.0572     -765.67232      946.29414     -1960.7631      1678.9566    
    312000   249.0273      -2898.5467     -782.47427      938.58412     -1959.9626      1618.6918    
    313000   255.62418     -2921.4316     -782.54424      962.65291     -1958.7787      1593.4243    
    314000   252.54971     -2909.7064     -787.94051      951.4357      -1958.2707      1542.8492    
    315000   259.8576      -2935.7805     -793.19033      978.09861     -1957.6819      1556.5946    
    316000   251.59009     -2905.4168     -782.10495      947.93449     -1957.4823      1527.5416    
    317000   255.03204     -2921.0965     -772.89242      960.4925      -1960.604       1672.8046    
    318000   255.30642     -2921.0155     -767.34695      961.49356     -1959.5219      1723.8986    
    319000   247.36031     -2890.153      -786.46145      932.50208     -1957.651       1511.42      
    320000   260.36901     -2938.0845     -779.92695      979.96448     -1958.12        1662.4561    
    321000   254.58634     -2915.6345     -771.5174       958.86635     -1956.7682      1628.9086    
    322000   245.54574     -2880.8082     -753.4833       925.8816      -1954.9266      1743.4913    
    323000   256.74441     -2919.8112     -770.92677      966.7401      -1953.0711      1665.0226    
    324000   258.20656     -2924.2059     -772.53555      972.07477     -1952.1312      1675.2879    
    325000   249.81764     -2893.6734     -792.15392      941.4677      -1952.2057      1496.672     
    326000   258.66869     -2924.1488     -780.06501      973.76086     -1950.388       1618.3528    
    327000   251.82302     -2895.5161     -767.03117      948.78434     -1946.7318      1719.4949    
    328000   254.27736     -2906.2675     -774.52055      957.73902     -1948.5284      1665.6478    
    329000   252.13819     -2897.787      -783.96576      949.93425     -1947.8528      1543.6818    
    330000   259.13249     -2923.9409     -784.72987      975.45304     -1948.4879      1585.8013    
    331000   257.01128     -2916.094      -790.24244      967.71376     -1948.3803      1528.1204    
    332000   254.68118     -2905.5489     -770.41792      959.21236     -1946.3365      1706.8358    
    333000   251.36433     -2892.8044     -756.91442      947.1108      -1945.6936      1717.4719    
    334000   259.00277     -2919.4287     -776.35645      974.97976     -1944.449       1660.3234    
    335000   251.82624     -2893.4264     -786.56503      948.7961      -1944.6303      1559.6301    
    336000   260.82618     -2925.822      -782.16168      981.63249     -1944.1895      1598.8822    
    337000   258.32382     -2915.2482     -778.71144      972.5026      -1942.7456      1609.653     
    338000   252.37372     -2892.555      -788.87939      950.79359     -1941.7614      1583.6338    
    339000   258.36057     -2914.5086     -776.61844      972.63668     -1941.872       1633.4229    
    340000   253.54955     -2895.2855     -751.98645      955.08362     -1940.2019      1794.5314    
    341000   252.53932     -2891.7902     -766.56926      951.39779     -1940.3924      1700.6257    
    342000   256.6419      -2904.7848     -778.90042      966.36608     -1938.4187      1589.9091    
    343000   254.94495     -2898.7326     -765.50694      960.17476     -1938.5578      1682.6636    
    344000   252.17567     -2888.7781     -768.42051      950.07098     -1938.7071      1630.2401    
    345000   246.04479     -2867.1166     -766.9682       927.70242     -1939.4142      1611.5664    
    346000   254.63334     -2895.9709     -766.60436      959.03783     -1936.933       1682.7434    
    347000   258.29065     -2908.5026     -775.88851      972.38157     -1936.121       1705.0545    
    348000   255.87601     -2899.0301     -772.28801      963.57173     -1935.4584      1636.0128    
    349000   252.46764     -2885.9633     -782.56925      951.13627     -1934.827       1522.4348    
    350000   256.68861     -2904.3324     -771.38732      966.53652     -1937.7959      1614.6834    
    351000   248.07522     -2872.9181     -768.54614      935.11044     -1937.8077      1656.9869    
    352000   257.25851     -2905.0217     -775.55409      968.61578     -1936.4059      1654.7605    
    353000   250.60918     -2879.7797     -764.69543      944.35563     -1935.424       1654.8343    
    354000   258.87427     -2909.2217     -779.90305      974.51092     -1934.7107      1643.1485    
    355000   255.97245     -2898.0637     -772.5036       963.92358     -1934.1402      1599.15      
    356000   253.19067     -2887.2591     -773.55823      953.77423     -1933.4848      1580.8979    
    357000   254.64716     -2891.3883     -767.08361      959.08827     -1932.3         1682.9755    
    358000   258.24315     -2904.494      -777.719        972.20826     -1932.2857      1612.2536    
    359000   259.70207     -2908.6421     -787.0034       977.53116     -1931.111       1555.6674    
    360000   261.12295     -2912.0209     -793.48518      982.71526     -1929.3056      1499.4538    
    361000   251.09707     -2876.284      -767.97212      946.13571     -1930.1483      1603.7315    
    362000   265.05909     -2928.3906     -781.31883      997.07629     -1931.3144      1655.1989    
    363000   251.66765     -2878.168      -768.04554      948.21748     -1929.9505      1645.5004    
    364000   252.74417     -2881.6655     -776.34671      952.14519     -1929.5203      1557.0313    
    365000   257.71332     -2899.9793     -770.46667      970.27517     -1929.7041      1699.0381    
    366000   251.85108     -2877.8255     -774.94108      948.88673     -1928.9388      1598.5977    
    367000   254.65118     -2887.4835     -772.30361      959.10293     -1928.3806      1617.6197    
    368000   251.90054     -2877.2296     -780.0487       949.06719     -1928.1625      1610.5498    
    369000   249.80412     -2867.7517     -764.85011      941.41836     -1926.3333      1646.4571    
    370000   256.11377     -2890.0457     -781.26994      964.43919     -1925.6065      1632.3292    
    371000   253.57692     -2881.3331     -778.90123      955.18347     -1926.1497      1575.6935    
    372000   258.35766     -2898.9226     -781.97696      972.62606     -1926.2966      1565.6883    
    373000   262.42689     -2912.7609     -778.6507       987.47269     -1925.2882      1631.6506    
    374000   257.73684     -2895.6313     -778.77864      970.36098     -1925.2703      1624.0076    
    375000   252.1566      -2875.3532     -767.7706       950.00141     -1925.3518      1671.5009    
    376000   255.95452     -2889.5203     -769.74871      963.85818     -1925.6621      1671.5211    
    377000   262.08994     -2913.1202     -773.38869      986.24333     -1926.8769      1660.3807    
    378000   257.45853     -2896.2658     -777.17427      969.34557     -1926.9202      1622.0265    
    379000   249.72148     -2869.0599     -761.04911      941.11685     -1927.943       1696.7222    
    380000   255.32244     -2886.9927     -782.55447      961.55203     -1925.4407      1615.7025    
    381000   253.86499     -2880.2358     -762.71861      956.2345      -1924.0013      1711.9715    
    382000   260.38125     -2901.068      -768.85455      980.00917     -1921.0588      1732.9572    
    383000   253.71035     -2876.0283     -771.07215      955.67028     -1920.358       1633.3975    
    384000   258.80955     -2893.304      -783.09684      974.27477     -1919.0292      1588.156     
    385000   258.69159     -2894.5541     -780.69031      973.84442     -1920.7097      1670.0645    
    386000   256.0648      -2883.0701     -772.37473      964.26052     -1918.8096      1650.6675    
    387000   256.67127     -2884.0093     -755.73238      966.47325     -1917.536       1786.469     
    388000   263.76452     -2910.3546     -769.2084       992.35306     -1918.0016      1705.9732    
    389000   261.27219     -2901.0558     -769.28327      983.25977     -1917.796       1657.0271    
    390000   266.25075     -2919.1622     -793.03512      1001.4241     -1917.7381      1573.1033    
    391000   251.14378     -2866.5103     -776.62563      946.30614     -1920.2042      1588.58      
    392000   257.11556     -2888.1653     -777.67852      968.09422     -1920.0711      1630.5048    
    393000   256.86809     -2888.7858     -780.06004      967.19134     -1921.5945      1598.8411    
    394000   257.7605      -2892.7129     -759.88627      970.44729     -1922.2656      1718.0992    
    395000   260.78877     -2903.6799     -770.91708      981.496       -1922.1839      1644.9821    
    396000   251.80882     -2870.9871     -761.2512       948.73252     -1922.2546      1657.322     
    397000   258.46193     -2896.6291     -779.67288      973.00647     -1923.6226      1605.5208    
    398000   258.18726     -2896.4758     -771.27387      972.00436     -1924.4714      1679.2867    
    399000   256.30576     -2889.8938     -771.04412      965.13969     -1924.7541      1664.0264    
    400000   253.12609     -2877.2161     -791.5146       953.53861     -1923.6775      1474.8376    
    401000   248.64322     -2862.1629     -768.54971      937.18279     -1924.9801      1657.8286    
    402000   259.21829     -2901.9851     -783.1522       975.76606     -1926.2191      1581.9382    
    403000   255.21536     -2888.0582     -783.72119      961.16134     -1926.8968      1628.4374    
    404000   262.61245     -2918.5376     -778.07111      988.14971     -1930.3879      1697.5547    
    405000   259.97899     -2909.0708     -793.33681      978.54148     -1930.5293      1552.8093    
    406000   253.91177     -2887.1786     -768.523        956.40519     -1930.7734      1607.042     
    407000   257.76338     -2904.5834     -782.72424      970.45782     -1934.1256      1550.7499    
    408000   257.55197     -2901.0309     -766.08344      969.68649     -1931.3444      1669.4144    
    409000   264.29593     -2925.6832     -791.91194      994.29189     -1931.3913      1577.5746    
    410000   262.2846      -2916.8632     -775.88998      986.95356     -1929.9097      1679.2667    
    411000   253.19008     -2885.8573     -767.91603      953.7721      -1932.0852      1675.5717    
    412000   256.33303     -2898.552      -778.79443      965.23918     -1933.3128      1594.9278    
    413000   254.98346     -2894.07       -767.40764      960.31524     -1933.7547      1671.6229    
    414000   259.8664      -2910.9951     -770.19997      978.13073     -1932.8644      1673.407     
    415000   248.85973     -2868.6879     -796.31773      937.97275     -1930.7152      1433.9938    
    416000   251.24601     -2875.7059     -776.06949      946.67913     -1929.0268      1571.0598    
    417000   255.65734     -2891.756      -784.39547      962.77389     -1928.9821      1598.0183    
    418000   254.85395     -2888.6802     -783.89217      959.84272     -1928.8374      1581.8856    
    419000   260.0599      -2908.1508     -780.65051      978.83671     -1929.3141      1577.0922    
    420000   250.77071     -2875.0767     -742.9484       944.94499     -1930.1317      1814.4529    
    421000   256.52982     -2895.1918     -785.82508      965.95716     -1929.2347      1530.6521    
    422000   258.17547     -2900.6199     -766.221        971.96135     -1928.6586      1677.6976    
    423000   252.13449     -2877.9241     -751.84571      949.92074     -1928.0034      1759.0501    
    424000   256.42165     -2893.2116     -777.1217       965.56251     -1927.6491      1568.0764    
    425000   259.76527     -2905.6538     -779.10558      977.76172     -1927.8921      1629.9228    
    426000   249.91077     -2867.8213     -764.50963      941.80747     -1926.0138      1601.5364    
    427000   251.20753     -2872.6435     -776.77364      946.53873     -1926.1048      1598.52      
    428000   260.29914     -2904.927      -787.71473      979.70956     -1925.2174      1538.1671    
    429000   257.40224     -2892.8817     -783.28958      969.14019     -1923.7415      1577.749     
    430000   260.88896     -2904.9773     -773.11516      981.86152     -1923.1158      1658.9089    
    431000   263.77091     -2914.4104     -763.56232      992.37638     -1922.0341      1692.647     
    432000   265.30349     -2920.654      -782.0917       997.96798     -1922.686       1604.3067    
    433000   252.59903     -2872.7005     -768.3057       951.61562     -1921.0849      1641.7833    
    434000   252.267       -2874.264      -767.55902      950.4042      -1923.8599      1627.7674    
    435000   262.50333     -2912.1692     -777.03105      987.75158     -1924.4176      1665.1076    
    436000   253.73821     -2879.0452     -772.95968      955.77192     -1923.2733      1579.0998    
    437000   249.02743     -2862.5288     -765.55594      938.58459     -1923.9443      1676.312     
    438000   258.96736     -2899.6552     -762.899        974.85054     -1924.8047      1709.6787    
    439000   259.29096     -2902.4284     -758.2438       976.03121     -1926.3972      1720.8455    
    440000   253.08676     -2879.2581     -781.86855      953.39511     -1925.863       1581.4345    
    441000   262.57467     -2912.324      -781.23233      988.01187     -1924.3122      1633.0872    
    442000   254.03324     -2883.4231     -760.40764      956.84836     -1926.5748      1747.7265    
    443000   257.52761     -2897.4755     -771.22578      969.59762     -1927.8779      1635.6554    
    444000   261.84233     -2913.5965     -778.14363      985.33993     -1928.2566      1602.2574    
    445000   262.8268      -2919.1208     -784.19099      988.93176     -1930.189       1611.4821    
    446000   262.25584     -2917.7404     -773.66192      986.84861     -1930.8917      1690.1633    
    447000   245.09335     -2856.3617     -770.60598      924.23106     -1932.1306      1566.3245    
    448000   255.57911     -2894.813      -763.03076      962.48848     -1932.3245      1721.5642    
    449000   256.95563     -2902.0497     -772.72455      967.51074     -1934.539       1635.2188    
    450000   251.55588     -2880.7569     -776.17006      947.80969     -1932.9472      1617.8951    
    451000   252.51479     -2884.481      -770.14628      951.30828     -1933.1727      1646.1328    
    452000   254.03518     -2890.1053     -764.19292      956.85544     -1933.2499      1716.5793    
    453000   256.25139     -2899.4059     -773.39143      964.9413      -1934.4646      1664.7456    
    454000   254.95612     -2894.5524     -799.36501      960.21549     -1934.3369      1433.8236    
    455000   248.43122     -2871.2647     -763.08999      936.40932     -1934.8554      1601.9095    
    456000   256.62785     -2901.8788     -777.69394      966.31483     -1935.5639      1628.0524    
    457000   255.58325     -2898.7295     -782.08669      962.50358     -1936.2259      1610.4948    
    458000   253.6482      -2890.6511     -771.3516       955.44353     -1935.2076      1668.5439    
    459000   252.61144     -2885.5354     -778.09466      951.6609      -1933.8745      1585.6971    
    460000   258.56092     -2907.2367     -786.94474      973.36765     -1933.8691      1584.3853    
    461000   254.95991     -2892.3107     -777.70942      960.22933     -1932.0813      1604.8027    
    462000   254.66919     -2889.4894     -750.92044      959.16863     -1930.3208      1758.9603    
    463000   258.51984     -2902.2811     -768.58983      973.21778     -1929.0633      1678.4657    
    464000   251.73296     -2878.9685     -780.89483      948.45575     -1930.5128      1595.5721    
    465000   257.4354      -2900.3518     -761.65859      969.26118     -1931.0906      1697.9741    
    466000   257.46962     -2902.0612     -770.63953      969.38603     -1932.6752      1724.6073    
    467000   247.23894     -2862.9532     -761.82458      932.05926     -1930.894       1715.6762    
    468000   251.59514     -2880.0292     -765.82753      947.95291     -1932.0763      1673.2211    
    469000   255.1235      -2891.6126     -788.23533      960.82618     -1930.7864      1603.8563    
    470000   256.68782     -2895.6467     -785.99273      966.53363     -1929.1131      1590.3437    
    471000   253.39726     -2882.2991     -773.07285      954.52798     -1927.7711      1637.2358    
    472000   257.11212     -2894.4363     -778.67016      968.08171     -1926.3545      1616.4962    
    473000   254.69238     -2884.3894     -760.24753      959.25324     -1925.1362      1739.0903    
    474000   260.51224     -2906.3365     -763.36982      980.48708     -1925.8495      1763.7686    
    475000   253.22768     -2880.6434     -797.68654      953.90928     -1926.7341      1479.4024    
    476000   264.34502     -2919.6309     -774.93982      994.471       -1925.1599      1660.7094    
    477000   252.64505     -2878.7793     -762.73746      951.78353     -1926.9958      1680.5269    
    478000   259.38598     -2903.7408     -765.67017      976.37789     -1927.3629      1751.6687    
    479000   256.76473     -2894.744      -777.31608      966.81422     -1927.9298      1613.3503    
    480000   254.13572     -2886.5168     -779.08075      957.22226     -1929.2945      1624.8232    
    481000   255.91864     -2893.0542     -778.32897      963.72727     -1929.327       1643.8004    
    482000   251.61816     -2877.6069     -761.64713      948.03692     -1929.57        1732.3912    
    483000   253.61445     -2882.3455     -782.22726      955.32041     -1927.0251      1533.6635    
    484000   257.92483     -2897.0258     -770.44652      971.04688     -1925.9789      1703.2538    
    485000   252.68395     -2878.3775     -769.11492      951.92546     -1926.452       1646.0055    
    486000   257.31083     -2894.9982     -785.41321      968.80669     -1926.1915      1558.5148    
    487000   256.5276      -2891.8691     -760.66595      965.94905     -1925.9201      1698.3767    
    488000   254.88939     -2886.1963     -768.5028       959.97202     -1926.2243      1696.6412    
    489000   254.5874      -2883.5587     -759.70571      958.87024     -1924.6885      1692.5424    
    490000   250.3134      -2868.8561     -771.41529      943.27647     -1925.5797      1593.1884    
    491000   250.30673     -2869.2646     -753.69698      943.25216     -1926.0124      1773.815     
    492000   257.43661     -2895.9465     -769.66827      969.26561     -1926.6809      1713.4029    
    493000   251.98591     -2877.3976     -747.75156      949.37867     -1928.019       1783.7602    
    494000   253.6738      -2883.5122     -787.43995      955.53695     -1927.9752      1480.8993    
    495000   259.28467     -2905.8102     -769.28824      976.00826     -1929.802       1653.4869    
    496000   253.87175     -2884.9748     -761.42025      956.25915     -1928.7157      1703.7086    
    497000   264.0882      -2922.1291     -781.05547      993.53399     -1928.5952      1610.2985    
    498000   258.24821     -2903.4        -779.29826      972.22673     -1931.1733      1587.5718    
    499000   258.06296     -2901.7987     -776.21171      971.55085     -1930.2478      1654.4969    
    500000   265.09107     -2925.5116     -782.73717      997.19298     -1928.3187      1622.3226    
    501000   252.45916     -2879.2628     -781.18152      951.1053      -1928.1575      1534.9778    
    502000   262.07513     -2912.492      -784.79999      986.18928     -1926.3027      1608.0451    
    503000   256.73199     -2892.1618     -781.77779      966.69478     -1925.467       1646.0302    
    504000   253.0541      -2879.8718     -787.03387      953.27594     -1926.5959      1547.189     
    505000   256.60127     -2891.0946     -771.32801      966.21784     -1924.8767      1629.8185    
    506000   251.43923     -2873.8184     -779.27011      947.3841      -1926.4343      1538.9797    
    507000   253.30599     -2880.4298     -763.9221       954.19498     -1926.2349      1718.7611    
    508000   261.97529     -2912.6804     -775.50226      985.82503     -1926.8554      1650.4428    
    509000   261.91077     -2914.1327     -788.06634      985.58961     -1928.5431      1539.861     
    510000   258.51941     -2904.8497     -783.5493       973.21619     -1931.6336      1553.6487    
    511000   244.96915     -2855.5063     -757.35244      923.77794     -1931.7284      1745.88      
    512000   262.06021     -2916.4241     -787.45214      986.13485     -1930.2893      1557.1441    
    513000   257.41202     -2900.0879     -791.3527       969.17587     -1930.9121      1537.5475    
    514000   253.22105     -2886.2631     -758.56588      953.88507     -1932.3781      1774.3231    
    515000   245.13976     -2858.3466     -761.69401      924.40041     -1933.9462      1647.9449    
    516000   256.8235      -2899.6239     -768.96199      967.02867     -1932.5952      1646.644     
    517000   259.69794     -2911.0285     -773.73778      977.5161      -1933.5124      1605.1222    
    518000   254.56952     -2894.8457     -766.66512      958.80498     -1936.0407      1727.654     
    519000   255.8105      -2898.7943     -780.84651      963.3327      -1935.4616      1597.5062    
    520000   256.64137     -2901.1889     -775.99464      966.36415     -1934.8248      1610.9561    
    521000   256.09225     -2899.3018     -775.81752      964.36068     -1934.9411      1601.4006    
    522000   253.1557      -2887.2        -777.58531      953.64664     -1933.5534      1595.5782    
    523000   255.4125      -2895.9417     -780.6207       961.88059     -1934.0611      1602.6688    
    524000   247.6362      -2867.3801     -751.31057      933.5087      -1933.8714      1801.3547    
    525000   254.80214     -2891.9082     -757.37752      959.65368     -1932.2545      1698.3751    
    526000   258.4429      -2904.7409     -783.14688      972.93704     -1931.8039      1568.4467    
    527000   248.40574     -2869.0287     -793.42933      936.31635     -1932.7124      1434.3181    
    528000   249.13097     -2873.9457     -778.53956      938.96236     -1934.9834      1539.9823    
    529000   249.12435     -2873.1644     -754.30542      938.93823     -1934.2262      1713.4802    
    530000   253.54029     -2889.5806     -772.39831      955.04982     -1934.5308      1629.3737    
    531000   246.57606     -2865.1597     -760.02624      929.64075     -1935.5189      1683.6791    
    532000   252.39666     -2886.5429     -768.18802      950.87727     -1935.6656      1614.3288    
    533000   254.69566     -2896.2963     -783.95192      959.26519     -1937.0311      1607.8885    
    534000   252.7791      -2888.3974     -788.29379      952.27262     -1936.1247      1507.4761    
    535000   248.94751     -2872.7772     -757.64127      938.29303     -1934.4842      1717.0744    
    536000   252.93281     -2888.0739     -776.56217      952.83343     -1935.2404      1614.9772    
    537000   258.86594     -2907.4812     -786.38756      974.48053     -1933.0007      1563.7156    
    538000   254.17193     -2890.8192     -767.46662      957.35438     -1933.4648      1637.3075    
    539000   259.46035     -2911.4147     -794.16897      976.64925     -1934.7655      1472.0492    
    540000   251.31465     -2883.7605     -769.54297      946.92954     -1936.8309      1621.6648    
    541000   258.02566     -2910.1112     -782.37351      971.41476     -1938.6964      1569.6879    
    542000   250.29032     -2879.3113     -774.48576      943.19229     -1936.1191      1577.5065    
    543000   257.16193     -2903.0249     -768.6586       968.26344     -1934.7615      1614.4862    
    544000   259.44539     -2911.6142     -763.60151      976.59465     -1935.0195      1710.1503    
    545000   247.02046     -2865.7135     -753.58878      931.26216     -1934.4514      1709.239     
    546000   250.47866     -2875.3809     -783.19398      943.87944     -1931.5014      1484.6914    
    547000   255.0973      -2892.8063     -769.92611      960.73058     -1932.0757      1629.9062    
    548000   257.51008     -2902.6159     -790.13454      969.53365     -1933.0823      1507.2115    
    549000   249.91139     -2875.7929     -761.22323      941.80973     -1933.9831      1735.7224    
    550000   251.95392     -2881.8768     -766.45231      949.26193     -1932.6148      1619.4425    
    551000   254.68977     -2889.8747     -773.11003      959.24372     -1930.631       1614.7345    
    552000   251.46144     -2877.3483     -761.4186       947.46511     -1929.8832      1682.9074    
    553000   256.46335     -2897.8155     -771.86234      965.71465     -1932.1009      1656.281     
    554000   257.67478     -2903.151      -779.03133      970.13457     -1933.0164      1613.1264    
    555000   255.30848     -2895.2815     -766.30066      961.5011      -1933.7804      1651.103     
    556000   250.13483     -2875.1898     -758.03454      942.62495     -1932.5648      1709.9924    
    557000   254.83003     -2894.1363     -773.10672      959.75546     -1934.3808      1650.8345    
    558000   254.15718     -2892.3048     -776.73239      957.30056     -1935.0043      1610.0026    
    559000   256.24355     -2901.2525     -765.56054      964.91272     -1936.3398      1695.2908    
    560000   250.95949     -2883.2655     -759.93939      945.63373     -1937.6318      1660.6208    
    561000   259.04186     -2912.2153     -754.84109      975.12238     -1937.0929      1810.1121    
    562000   253.57527     -2893.1613     -782.04102      955.17746     -1937.9838      1522.0383    
    563000   249.60915     -2882.0251     -770.85519      940.70701     -1941.3181      1609.536     
    564000   252.0099      -2893.0125     -770.74603      949.4662      -1943.5463      1630.3346    
    565000   254.15974     -2902.1733     -799.18422      957.30988     -1944.8635      1488.4576    
    566000   249.67514     -2885.8347     -771.38391      940.94779     -1944.8869      1611.6172    
    567000   251.70778     -2893.2062     -780.37259      948.36389     -1944.8423      1606.3725    
    568000   259.8401      -2923.0621     -777.77281      978.03477     -1945.0274      1656.0553    
    569000   252.3276      -2896.0951     -770.46456      950.62531     -1945.4698      1664.8245    
    570000   259.1289      -2922.8721     -772.91904      975.43993     -1947.4322      1700.2833    
    571000   244.30064     -2868.2851     -779.30644      921.33886     -1946.9462      1572.7888    
    572000   242.88569     -2861.1941     -763.25412      916.17641     -1945.0177      1641.8574    
    573000   258.78035     -2919.9287     -772.38593      974.16826     -1945.7604      1730.3107    
    574000   248.45793     -2881.9874     -751.21464      936.50678     -1945.4806      1798.0526    
    575000   248.47172     -2883.2757     -770.98518      936.55709     -1946.7186      1562.7283    
    576000   258.80249     -2920.0388     -779.46468      974.24902     -1945.7898      1634.6448    
    577000   248.21038     -2882.7579     -798.60433      935.6036      -1947.1543      1491.7378    
    578000   248.41459     -2884.0973     -774.79225      936.34866     -1947.7486      1611.0083    
    579000   262.89878     -2934.5431     -778.67264      989.19439     -1945.3487      1614.3437    
    580000   250.50135     -2886.2706     -774.25578      943.96221     -1942.3084      1624.034     
    581000   246.24857     -2870.3882     -793.16356      928.44591     -1941.9423      1462.9059    
    582000   255.00321     -2901.973      -770.63958      960.38729     -1941.5857      1714.3298    
    583000   261.10661     -2921.8618     -768.2351       982.65562     -1939.2061      1672.3932    
    584000   257.04908     -2907.4223     -773.13511      967.85167     -1939.5706      1596.3133    
    585000   262.52364     -2926.4737     -788.98292      987.82568     -1938.6481      1590.9881    
    586000   255.48945     -2900.2221     -769.51846      962.16135     -1938.0608      1669.4372    
    587000   257.66726     -2907.1518     -778.95833      970.10712     -1937.0447      1609.8664    
    588000   252.9673      -2888.7431     -777.45062      952.95927     -1935.7838      1540.1496    
    589000   256.97425     -2902.1108     -791.06606      967.57866     -1934.5322      1504.1208    
    590000   258.10099     -2905.7347     -787.64558      971.68958     -1934.0451      1534.4389    
    591000   258.09125     -2903.6724     -788.15709      971.65405     -1932.0183      1618.4746    
    592000   253.8021      -2887.9326     -748.53828      956.00505     -1931.9276      1752.4573    
    593000   254.349       -2890.3551     -769.88605      958.0004      -1932.3547      1650.2095    
    594000   261.27201     -2914.7976     -776.02989      983.25909     -1931.5385      1626.6542    
    595000   257.85508     -2902.0429     -778.54248      970.79238     -1931.2505      1612.4777    
    596000   254.36959     -2890.3449     -757.80451      958.07553     -1932.2693      1706.8041    
    597000   253.83366     -2888.3016     -774.62332      956.12019     -1932.1814      1579.8439    
    598000   257.77868     -2905.7168     -769.82757      970.51364     -1935.2031      1648.5734    
    599000   259.24784     -2911.2352     -773.47973      975.87388     -1935.3613      1620.8394    
    600000   259.45967     -2912.3632     -786.52701      976.64676     -1935.7164      1555.3095    
    601000   255.14659     -2896.8152     -787.14784      960.91042     -1935.9048      1576.7368    
    602000   249.19427     -2875.716      -763.1784       939.19334     -1936.5226      1692.0057    
    603000   256.3272      -2901.084      -765.58979      965.2179      -1935.8661      1700.868     
    604000   257.43685     -2904.345      -793.41255      969.26647     -1935.0785      1545.9572    
    605000   255.02289     -2895.3715     -764.697        960.45911     -1934.9124      1694.5925    
    606000   262.1773      -2920.2084     -774.43448      986.56204     -1933.6463      1700.1598    
    607000   250.89562     -2877.4888     -759.24239      945.4007      -1932.0881      1712.6181    
    608000   261.70171     -2915.3226     -764.4737       984.82688     -1930.4957      1756.7962    
    609000   257.22561     -2896.2957     -783.76224      968.49575     -1927.7999      1594.9903    
    610000   250.79098     -2873.8391     -770.57835      945.01894     -1928.8202      1640.4381    
    611000   251.83591     -2878.4243     -765.1607       948.83137     -1929.5929      1735.9289    
    612000   260.15748     -2909.6291     -759.28843      979.1927      -1930.4364      1717.3061    
    613000   258.47297     -2902.2444     -763.3237       973.04676     -1929.1976      1695.008     
    614000   253.96949     -2885.1834     -775.54205      956.61576     -1928.5677      1636.9554    
    615000   245.90422     -2856.5325     -764.37629      927.18956     -1929.343       1667.1748    
    616000   259.1209      -2905.4062     -770.48204      975.41076     -1929.9954      1650.7425    
    617000   258.02512     -2901.5026     -781.43564      971.41278     -1930.0898      1660.782     
    618000   244.98112     -2854.0889     -768.0924       923.8216      -1930.2673      1659.2178    
    619000   251.46469     -2876.6565     -766.39248      947.47697     -1929.1796      1635.2523    
    620000   258.47651     -2902.2684     -771.06556      973.0597      -1929.2087      1787.6629    
    621000   256.07391     -2894.4327     -770.40536      964.29379     -1930.1389      1727.4227    
    622000   251.12451     -2876.0303     -762.17128      946.23584     -1929.7945      1717.8915    
    623000   252.86082     -2882.159      -769.0199       952.57078     -1929.5882      1650.4169    
    624000   260.87549     -2911.0067     -776.10092      981.81237     -1929.1944      1628.3801    
    625000   251.71434     -2877.7617     -775.03268      948.38782     -1929.3739      1624.7068    
    626000   256.76442     -2895.6193     -770.4982       966.81311     -1928.8062      1652.7218    
    627000   250.2066      -2869.7181     -752.30744      942.88684     -1926.8313      1763.2508    
    628000   252.65522     -2877.5172     -751.9456       951.82063     -1925.6965      1747.4136    
[...]
   3475000   249.00271     -2871.8752     -766.48354      938.49443     -1933.3808      1681.2679    
   3476000   248.07114     -2867.5711     -761.92286      935.09556     -1932.4756      1628.1325    
   3477000   258.68311     -2906.0252     -764.77001      973.81347     -1932.2117      1708.9638    
   3478000   256.5171      -2898.2868     -782.15675      965.91075     -1932.3761      1579.9718    
   3479000   259.53348     -2907.1951     -786.39624      976.91603     -1930.2791      1519.1093    
   3480000   265.84805     -2931.8337     -798.52374      999.95483     -1931.8789      1501.9603    
   3481000   258.42683     -2905.4518     -756.5237       972.87842     -1932.5734      1772.223     
   3482000   258.46413     -2903.9041     -770.60384      973.01451     -1930.8896      1656.9492    
   3483000   258.16583     -2902.8627     -773.51822      971.92616     -1930.9366      1686.3867    
   3484000   255.90252     -2892.964      -757.90453      963.66846     -1929.2956      1704.3139    
   3485000   251.55896     -2880.3236     -781.04783      947.82093     -1932.5027      1594.648     
   3486000   262.18624     -2920.6086     -779.61665      986.59467     -1934.0139      1696.2788    
   3487000   259.22013     -2909.877      -772.30238      975.77279     -1934.1043      1721.0814    
   3488000   258.62608     -2907.3675     -774.64318      973.6054      -1933.7621      1658.1851    
   3489000   250.89643     -2876.2507     -776.27069      945.40366     -1930.847       1630.3844    
   3490000   264.40528     -2924.2738     -797.19073      994.69086     -1929.583       1550.4502    
   3491000   254.30969     -2888.2952     -757.39343      957.857       -1930.4382      1774.7949    
   3492000   252.68227     -2883.0116     -782.38154      951.91934     -1931.0922      1563.1534    
   3493000   262.09419     -2920.113      -773.00882      986.25884     -1933.8542      1671.1494    
   3494000   247.45124     -2866.805      -792.03153      932.83385     -1933.9711      1523.4219    
   3495000   256.19149     -2898.1147     -777.4681       964.72275     -1933.392       1621.8107    
   3496000   249.19743     -2870.7616     -769.60831      939.20485     -1931.5567      1636.315     
   3497000   254.53777     -2889.9312     -784.46488      958.68914     -1931.2421      1552.4051    
   3498000   247.10932     -2864.6456     -744.21284      931.58635     -1933.0593      1848.5337    
   3499000   258.63214     -2903.7599     -790.40746      973.62749     -1930.1324      1540.7346    
   3500000   258.88055     -2907.4367     -784.54839      974.53381     -1932.9028      1582.5661    
   3501000   262.4978      -2922.131      -795.95619      987.73142     -1934.3996      1486.1138    
   3502000   256.11435     -2898.3999     -779.02462      964.44133     -1933.9586      1597.4535    
   3503000   259.25721     -2910.6672     -784.4022       975.90808     -1934.7592      1568.397     
   3504000   255.42396     -2897.7417     -782.5554       961.9224      -1935.8193      1557.6161    
   3505000   250.99979     -2881.448      -777.56169      945.78078     -1935.6672      1528.7117    
   3506000   259.23784     -2910.2922     -792.03883      975.83741     -1934.4547      1502.0191    
   3507000   261.56216     -2918.9911     -770.90426      984.31769     -1934.6734      1639.7027    
   3508000   253.76758     -2892.0537     -763.89845      955.8791      -1936.1746      1668.7551    
   3509000   256.67669     -2903.3626     -789.40717      966.49301     -1936.8696      1578.6307    
   3510000   253.65151     -2890.7707     -778.53891      955.45561     -1935.3151      1642.5872    
   3511000   258.61044     -2909.123      -766.09269      973.54831     -1935.5747      1687.2461    
   3512000   254.22438     -2894.0466     -782.08221      957.54575     -1936.5008      1654.1       
   3513000   250.80003     -2881.1185     -789.33575      945.05197     -1936.0665      1573.8294    
   3514000   257.94056     -2906.5012     -781.21365      971.10425     -1935.397       1566.0202    
   3515000   245.00843     -2861.0412     -763.21292      923.92123     -1937.12        1650.8246    
   3516000   248.75725     -2876.7042     -764.43933      937.59883     -1939.1053      1622.4242    
   3517000   251.79638     -2887.0586     -775.84221      948.68716     -1938.3714      1666.2816    
   3518000   253.07065     -2892.085      -779.75817      953.33632     -1938.7487      1602.5937    
   3519000   251.76452     -2888.2564     -762.24999      948.57092     -1939.6855      1698.9332    
   3520000   258.81424     -2913.5009     -788.37585      974.2919      -1939.209       1534.6132    
   3521000   254.44047     -2896.8562     -784.13333      958.33414     -1938.522       1646.6453    
   3522000   259.41312     -2915.3863     -774.2122       976.47692     -1938.9094      1647.0109    
   3523000   259.02417     -2916.5004     -785.53287      975.05783     -1941.4426      1543.6578    
   3524000   245.79627     -2869.2099     -762.56782      926.79569     -1942.4142      1694.5724    
   3525000   250.74467     -2886.6093     -775.84352      944.84997     -1941.7593      1635.9683    
   3526000   254.57937     -2898.6709     -788.00205      958.84093     -1939.83        1571.9457    
   3527000   252.54522     -2891.7053     -769.20898      951.41929     -1940.286       1708.4133    
   3528000   257.15356     -2908.7866     -777.26188      968.23287     -1940.5537      1691.4068    
   3529000   264.08557     -2934.3437     -786.70604      993.5244      -1940.8193      1633.1902    
   3530000   261.00783     -2921.9463     -777.9541       982.29524     -1939.6511      1595.663     
   3531000   263.87347     -2931.0156     -790.17884      992.75055     -1938.265       1553.1751    
   3532000   255.4785      -2900.2129     -789.62183      962.12141     -1938.0914      1513.1118    
   3533000   255.28995     -2901.0618     -777.60388      961.43349     -1939.6283      1654.3202    
   3534000   257.46882     -2906.2235     -790.03519      969.38312     -1936.8404      1584.5713    
   3535000   254.87289     -2894.8572     -760.55714      959.91185     -1934.9453      1675.5024    
   3536000   251.03588     -2881.5311     -769.64736      945.91244     -1935.6187      1692.0721    
   3537000   248.30918     -2872.2404     -769.70276      935.96405     -1936.2764      1629.6315    
   3538000   255.49224     -2897.0393     -770.72124      962.17153     -1934.8678      1720.7839    
   3539000   259.56131     -2911.2554     -787.55304      977.01757     -1934.2378      1540.8108    
   3540000   257.38322     -2901.9506     -797.21354      969.0708      -1932.8798      1486.2158    
   3541000   251.00239     -2879.0349     -760.76294      945.79026     -1933.2447      1640.6893    
   3542000   255.66061     -2897.2711     -769.49854      962.78584     -1934.4852      1703.6742    
   3543000   254.54255     -2892.3628     -785.36952      958.70658     -1933.6562      1565.1936    
   3544000   254.59271     -2891.9762     -774.25796      958.88961     -1933.0866      1604.7607    
   3545000   247.42095     -2863.7364     -759.98328      932.72334     -1931.0131      1717.4671    
   3546000   250.76463     -2878.1709     -750.07951      944.92281     -1933.248       1820.097     
   3547000   254.73413     -2893.2734     -779.01755      959.40557     -1933.8678      1583.5027    
   3548000   251.16283     -2880.2227     -775.35312      946.37562     -1933.847       1584.5207    
   3549000   251.65074     -2881.3523     -766.42429      948.15578     -1933.1965      1680.6905    
   3550000   255.1779      -2895.871      -783.90925      961.02466     -1934.8463      1536.8162    
   3551000   250.61235     -2880.081      -773.52233      944.36721     -1935.7137      1607.0522    
   3552000   249.27011     -2874.3354     -752.80971      939.47004     -1934.8654      1790.7212    
   3553000   255.44682     -2896.0064     -784.43686      962.00584     -1934.0006      1597.2155    
   3554000   253.66836     -2891.6217     -783.35297      955.51709     -1936.1046      1537.8435    
   3555000   254.55256     -2895.7173     -774.49129      958.74312     -1936.9741      1608.8915    
   3556000   255.41085     -2899.2034     -760.31158      961.87458     -1937.3288      1804.1448    
   3557000   257.81134     -2908.2655     -780.11352      970.63279     -1937.6327      1634.2182    
   3558000   264.439       -2930.1705     -761.39967      994.81389     -1935.3566      1757.0373    
   3559000   252.47442     -2887.3226     -773.87898      951.161       -1936.1616      1623.0558    
   3560000   256.69728     -2902.725      -771.20851      966.56813     -1936.1569      1641.4042    
   3561000   256.06257     -2901.0043     -800.95009      964.25241     -1936.7519      1492.1272    
   3562000   257.03601     -2904.4745     -773.57447      967.80399     -1936.6705      1638.1232    
   3563000   248.87575     -2875.38       -780.05936      938.03119     -1937.3488      1542.7616    
   3564000   254.8069      -2897.7885     -793.31576      959.67106     -1938.1175      1502.1877    
   3565000   257.83062     -2907.692      -784.88675      970.70314     -1936.9888      1639.3858    
   3566000   249.07194     -2874.7395     -766.34172      938.74699     -1935.9925      1661.4315    
   3567000   252.03874     -2885.4304     -776.41979      949.57142     -1935.859       1588.8801    
   3568000   262.79243     -2925.4168     -775.0582       988.80638     -1936.6104      1677.9165    
   3569000   257.9824      -2907.2983     -777.87244      971.25691     -1936.0414      1627.7329    
   3570000   261.88402     -2919.4421     -784.56091      985.49204     -1933.9501      1569.4968    
   3571000   256.06302     -2898.7896     -777.68134      964.25404     -1934.5355      1601.101     
   3572000   254.36177     -2890.0955     -773.28895      958.04699     -1932.0485      1594.5008    
   3573000   267.57957     -2936.8439     -798.59753      1006.2723     -1930.5716      1533.6432    
   3574000   249.09608     -2870.1537     -752.34734      938.83509     -1931.3186      1811.8108    
   3575000   257.64284     -2899.4042     -780.0554       970.01804     -1929.3861      1610.7932    
   3576000   257.0134      -2895.3504     -776.41604      967.72151     -1927.6289      1652.0979    
   3577000   250.85923     -2873.1368     -773.10873      945.26797     -1927.8688      1644.7614    
   3578000   254.3364      -2882.8923     -761.08042      957.95443     -1924.9379      1688.7594    
   3579000   256.05531     -2890.5029     -765.73916      964.22591     -1926.277       1680.9296    
   3580000   260.95247     -2909.2596     -783.73306      982.09327     -1927.1664      1633.0073    
   3581000   255.06094     -2888.0671     -795.93352      960.59795     -1927.4692      1550.4961    
   3582000   251.32756     -2874.1041     -777.42045      946.97667     -1927.1274      1569.0769    
   3583000   250.22412     -2867.3793     -776.80017      942.95072     -1924.4286      1610.5784    
   3584000   248.77607     -2861.5159     -774.73602      937.6675      -1923.8484      1587.073     
   3585000   258.30875     -2895.4986     -784.19501      972.4476      -1923.051       1571.9403    
   3586000   258.13223     -2893.7422     -753.24038      971.80357     -1921.9386      1775.5365    
   3587000   260.81411     -2905.617      -766.89961      981.58844     -1924.0286      1723.1622    
   3588000   257.8628      -2894.4077     -798.64961      970.82054     -1923.5871      1511.0216    
   3589000   258.84689     -2898.3882     -773.30734      974.41102     -1923.9771      1694.6009    
   3590000   256.45079     -2889.2549     -777.92097      965.66881     -1923.5861      1631.5126    
   3591000   261.36663     -2908.4433     -782.43271      983.60432     -1924.839       1580.7086    
   3592000   259.77907     -2902.9661     -780.00468      977.81207     -1925.154       1631.4285    
   3593000   262.32943     -2910.9831     -789.73889      987.1171      -1923.866       1586.0466    
   3594000   259.49785     -2901.2252     -770.88975      976.78607     -1924.4391      1654.1492    
   3595000   258.72047     -2899.4626     -770.24874      973.94978     -1925.5129      1641.4355    
   3596000   252.79295     -2877.7476     -784.57021      952.32313     -1925.4245      1548.6065    
   3597000   252.88704     -2876.9721     -778.54189      952.66645     -1924.3056      1571.2477    
   3598000   250.52171     -2868.365      -768.59627      944.03651     -1924.3285      1634.7954    
   3599000   264.15041     -2915.5034     -794.29231      993.76098     -1921.7424      1565.3584    
   3600000   256.8333      -2888.7552     -782.95912      967.06439     -1921.6908      1533.2463    
   3601000   262.15075     -2910.1415     -770.42099      986.46517     -1923.6764      1724.1324    
   3602000   253.99123     -2882.0581     -783.99466      956.69507     -1925.3631      1595.031     
   3603000   259.57973     -2903.5512     -795.01857      977.08478     -1926.4664      1526.7106    
   3604000   261.41829     -2911.1852     -788.03458      983.79281     -1927.3923      1616.587     
   3605000   257.63213     -2899.5784     -767.24703      969.97893     -1929.5995      1678.5342    
   3606000   256.53963     -2894.0207     -778.76925      965.99295     -1928.0277      1625.0023    
   3607000   257.72474     -2898.8529     -767.87801      970.31683     -1928.536       1704.8       
   3608000   250.29109     -2871.4284     -776.64973      943.19508     -1928.2333      1636.4249    
   3609000   253.84183     -2885.5241     -770.45292      956.15001     -1929.3741      1673.9001    
   3610000   256.05621     -2893.6047     -780.28179      964.22918     -1929.3756      1553.4793    
   3611000   261.08158     -2910.486      -779.06098      982.5643      -1927.9217      1626.1105    
   3612000   251.92858     -2877.0427     -755.53151      949.1695      -1927.8732      1670.9635    
   3613000   258.36564     -2899.0306     -764.73913      972.65516     -1926.3754      1699.8558    
   3614000   251.83019     -2878.1608     -745.06922      948.81052     -1929.3503      1842.5205    
   3615000   265.62132     -2929.5137     -772.6715       999.1276      -1930.3861      1673.2657    
   3616000   250.44611     -2875.0549     -765.09449      943.76066     -1931.2942      1695.739     
   3617000   253.49668     -2885.2565     -765.42749      954.89073     -1930.3657      1694.17      
   3618000   257.00124     -2895.811      -791.68717      967.67714     -1928.1339      1523.7011    
   3619000   257.11774     -2895.1028     -786.78424      968.10218     -1927.0006      1588.8903    
   3620000   260.27952     -2905.4591     -790.1515       979.63797     -1925.8211      1571.6858    
   3621000   263.26184     -2916.8378     -784.07175      990.51903     -1926.3188      1614.6511    
   3622000   253.44223     -2879.6882     -757.10577      954.69207     -1924.9962      1772.2424    
   3623000   253.89396     -2880.573      -784.03592      956.34021     -1924.2328      1522.6303    
   3624000   256.47093     -2891.598      -779.82045      965.74229     -1925.8557      1636.9723    
   3625000   256.01214     -2891.5571     -766.24039      964.06838     -1927.4887      1699.89      
   3626000   255.88576     -2889.1622     -768.61474      963.60728     -1925.5549      1682.2032    
   3627000   255.39826     -2885.6099     -771.03718      961.82865     -1923.7813      1581.681     
   3628000   255.17641     -2884.0492     -769.4537       961.01925     -1923.0299      1654.6884    
   3629000   249.71851     -2862.0089     -756.8684       941.10602     -1920.9029      1687.7286    
   3630000   245.80242     -2849.2743     -758.75736      926.81814     -1922.4561      1649.4188    
   3631000   259.13819     -2898.0417     -781.18106      975.47385     -1922.5679      1573.6994    
   3632000   252.61687     -2875.0534     -771.19891      951.68073     -1923.3727      1592.0614    
   3633000   256.27968     -2888.8804     -752.81636      965.04453     -1923.8359      1756.5796    
   3634000   252.98252     -2876.3766     -736.37854      953.01481     -1923.3618      1901.1316    
   3635000   259.7863      -2901.9792     -775.50302      977.83847     -1924.1408      1630.1004    
   3636000   248.14862     -2858.8811     -759.46209      935.37824     -1923.5028      1684.1074    
   3637000   258.61082     -2896.4581     -794.97752      973.54971     -1922.9084      1530.2793    
   3638000   253.54093     -2879.2697     -783.46493      955.05217     -1924.2176      1520.1524    
   3639000   257.3158      -2893.1053     -772.48011      968.82481     -1924.2805      1668.9385    
   3640000   253.25822     -2880.5822     -772.654        954.02071     -1926.5614      1630.1918    
   3641000   255.45808     -2889.6731     -770.65557      962.04689     -1927.6263      1683.6318    
   3642000   258.09438     -2896.6017     -767.31696      971.66547     -1924.9363      1671.2963    
   3643000   253.60915     -2879.8431     -782.0047       955.30107     -1924.5421      1555.0749    
   3644000   256.45473     -2891.9231     -765.03881      965.6832      -1926.2399      1702.6028    
   3645000   252.7348      -2879.6791     -771.68154      952.111       -1927.5681      1653.006     
   3646000   260.71885     -2909.0484     -764.00646      981.24088     -1927.8075      1747.9839    
   3647000   253.62061     -2883.7892     -776.07025      955.34288     -1928.4463      1601.1195    
   3648000   252.99901     -2883.4043     -752.43067      953.07495     -1930.3294      1748.2006    
   3649000   260.29739     -2910.4296     -762.02934      979.70318     -1930.7264      1748.7113    
   3650000   260.28131     -2911.4072     -777.60164      979.64451     -1931.7627      1554.7829    
   3651000   254.56374     -2890.2052     -782.83667      958.78389     -1931.4213      1569.7823    
   3652000   258.32319     -2906.2076     -771.05545      972.50031     -1933.7072      1673.7608    
   3653000   248.62179     -2871.494      -774.5103       937.10463     -1934.3894      1636.8376    
   3654000   256.00517     -2896.1298     -771.46536      964.04297     -1932.0869      1641.7661    
   3655000   249.71709     -2872.1927     -772.31934      941.10083     -1931.0919      1585.8817    
WARNING: Bond/angle/dihedral extent > half of periodic box length (../domain.cpp:940)
Loop time of 3482.92 on 4 procs for 3500000 steps with 1949 atoms

Performance: 86.824 ns/day, 0.276 hours/ns, 1004.904 timesteps/s
97.5% CPU use with 4 MPI tasks x no OpenMP threads

MPI task timing breakdown:
Section |  min time  |  avg time  |  max time  |%varavg| %total
---------------------------------------------------------------
Pair    | 2033.4     | 2416.9     | 2820.9     | 644.2 | 69.39
Bond    | 77.132     | 88.613     | 99.691     | 115.4 |  2.54
Neigh   | 136        | 136.16     | 136.32     |   1.0 |  3.91
Comm    | 275.38     | 686.84     | 1076       |1236.6 | 19.72
Output  | 0.16309    | 0.16508    | 0.17025    |   0.7 |  0.00
Modify  | 100.37     | 106.05     | 113.34     |  53.1 |  3.04
Other   |            | 48.15      |            |       |  1.38

Nlocal:         487.25 ave         539 max         442 min
Histogram: 1 0 1 0 0 1 0 0 0 1
Nghost:         2322.5 ave        2473 max        2181 min
Histogram: 1 1 0 0 0 0 0 0 1 1
Neighs:        51577.2 ave       59339 max       46026 min
Histogram: 1 1 0 0 0 1 0 0 0 1

Total # of neighbors = 206309
Ave neighs/atom = 105.85377
Ave special neighs/atom = 2.2626988
Neighbor list builds = 59500
Dangerous builds = 0

write_restart slipeq_restart_file.txt
System init for write_restart ...
Generated 0 of 1 mixed pair_coeff terms from geometric mixing rule
Total wall time: 1:00:31
