# LAMMPS data file written by OVITO Pro 3.7.4
980 atoms
882 bonds
784 angles
686 dihedrals
1 atom types
1 bond types
1 angle types
1 dihedral types
0.0 30.0 xlo xhi
0.0 30.0 ylo yhi
0.0 45.0 zlo zhi

Atoms  # full

1 62 1 0.0 1.7392297573 0.3516655887 3.3730734704 1 1 0
2 57 1 0.0 5.0439053787 0.8571851739 3.1383817369 1 1 0
3 57 1 0.0 2.2605105504 3.2723113869 3.0624446589 1 1 0
4 57 1 0.0 1.3788751361 1.9198356121 6.5364535178 0 1 0
5 57 1 0.0 2.2184817229 3.5055801284 2.9897920132 0 1 0
6 57 1 0.0 2.6574177287 1.6573262575 6.2616220459 0 1 0
7 62 1 0.0 28.5024571075 2.0307127153 3.0937963614 0 2 0
8 57 1 0.0 5.1608431281 29.8138621229 5.5357391143 1 0 0
9 42 1 0.0 4.7572510301 4.3123907636 4.8423358242 1 0 0
10 42 1 0.0 7.231383548 4.1895281901 2.9514512011 1 0 0
11 42 1 0.0 10.1270256476 1.9758230895 2.9786877553 1 0 0
12 42 1 0.0 10.73682025 4.9191289447 3.5470369737 0 0 0
13 42 1 0.0 10.8150308434 29.2182449385 5.6445617869 1 -1 0
14 27 1 0.0 13.3880739061 3.6813218504 5.0437328924 1 0 0
15 27 1 0.0 13.6958678534 3.7412944413 3.2477172283 1 0 0
16 27 1 0.0 15.0038697775 4.0434526496 6.2264408379 1 0 0
17 77 1 0.0 15.3664097393 0.8892638727 3.2935348598 1 0 0
18 23 1 0.0 19.2127200957 3.7131158465 2.9119171757 0 -1 0
19 27 1 0.0 15.8147013272 4.145526332 3.5887667709 0 0 0
20 23 1 0.0 23.1916100929 2.2635796836 3.1353201128 0 -1 0
21 23 1 0.0 23.1701530216 2.6508369833 6.8449220218 0 0 0
22 52 1 0.0 22.1484876417 5.6025405699 2.944140289 1 -1 0
23 52 1 0.0 22.446847246 5.6677443351 3.4530610685 1 -1 0
24 23 1 0.0 20.3988377572 5.258051 5.8077934226 0 0 0
25 52 1 0.0 25.9888624744 3.8247021451 3.6236178233 1 0 0
26 52 1 0.0 25.7017721869 5.7527254443 3.1296489215 1 -1 0
27 62 1 0.0 26.6019130982 0.9692722337 3.4573974935 0 1 0
28 62 1 0.0 25.6574717509 28.9123954857 3.0094638513 0 0 0
29 62 1 0.0 29.9388030249 28.3625935243 5.1122553802 2 0 0
30 7 1 0.0 28.7625228668 4.008565704 6.7085509179 1 0 0
31 52 1 0.0 28.8817780508 5.5868728432 3.7711960597 1 0 0
32 62 1 0.0 27.6209557728 28.8385664852 2.8985395586 0 -1 0
33 26 1 0.0 4.0276328645 10.5663846261 3.0725005836 1 0 0
34 57 1 0.0 1.9009180873 5.0026805831 6.0568483569 1 1 0
35 26 1 0.0 2.383846382 11.582350794 5.6069173593 1 0 0
36 7 1 0.0 1.1511177556 9.4934408342 2.8290800019 1 0 0
37 7 1 0.0 1.3414442991 8.4976675653 4.4129127808 1 0 0
38 57 1 0.0 3.3859009669 6.6157672535 3.2169008797 1 1 0
39 42 1 0.0 9.2146856644 8.7548714712 3.2252583826 0 0 0
40 26 1 0.0 6.4897066571 11.2202419318 5.7007403557 1 0 0
41 42 1 0.0 5.8163557768 8.2455083451 3.0205112888 0 0 0
42 92 1 0.0 12.290830291 11.9240508534 3.1266469903 0 0 0
43 27 1 0.0 12.5371110464 7.3267170968 3.0981823994 0 0 0
44 27 1 0.0 11.4458615475 7.4656723791 5.6420254537 0 0 0
45 92 1 0.0 14.2546039055 10.1657237458 3.2631774042 0 0 0
46 27 1 0.0 15.5996732887 7.1315929446 2.9090334504 0 0 0
47 27 1 0.0 15.9312798552 8.7415267015 5.188043008 -1 0 0
48 67 1 0.0 18.3881265638 8.3174100541 7.2373993101 2 0 0
49 52 1 0.0 18.4418631528 8.6213390703 3.4644988287 1 -1 0
50 52 1 0.0 19.0263958273 6.6407624716 3.0861140265 1 -1 0
51 52 1 0.0 23.2668371111 9.6111042603 3.3384054336 2 -1 0
52 52 1 0.0 24.8736885203 8.6270789727 4.5502589719 1 -2 0
53 71 1 0.0 24.0410741817 12.7332372766 3.1416775293 1 0 0
54 81 1 0.0 20.4137753808 11.8925090192 2.9883651045 0 -1 0
55 27 1 0.0 17.0840946253 6.12970002 5.3457842054 0 0 0
56 7 1 0.0 28.8761686244 10.387097448 3.097239013 0 0 0
57 52 1 0.0 27.5936627697 7.4173072855 3.0317159617 1 -1 0
58 71 1 0.0 26.2123707173 11.6501337285 3.8990677923 2 0 0
59 7 1 0.0 29.0295901027 10.1809319164 6.060715114 -1 0 0
60 7 1 0.0 29.1462273607 13.5286892999 3.3319097753 0 0 0
61 7 1 0.0 25.5373788409 9.8973141069 7.2747700229 -1 0 0
62 7 1 0.0 28.5536778968 9.7595923448 5.8984374061 0 0 0
63 26 1 0.0 7.0070947115 12.5739498673 2.9141055863 1 0 0
64 7 1 0.0 0.5540242501 13.160292596 3.1275503784 0 0 0
65 21 1 0.0 3.8713011517 14.0466836751 2.801241001 0 0 0
66 21 1 0.0 3.9001882648 13.7155265048 3.9416783793 0 0 0
67 21 1 0.0 4.8774675831 18.1433202399 3.6751054653 0 -1 0
68 12 1 0.0 1.330127549 14.5312038742 6.0703049784 1 0 0
69 21 1 0.0 2.1501451955 17.1037020772 3.4313718865 0 0 0
70 92 1 0.0 9.815095832 11.5631098901 4.8520214437 0 0 0
71 21 1 0.0 6.1824907173 16.0743031708 3.2397463571 0 -1 0
72 21 1 0.0 7.6492087564 16.0344216816 5.4428127903 1 -1 0
73 92 1 0.0 10.7037095511 15.5191607013 3.4917806975 0 0 0
74 92 1 0.0 10.5792305224 14.2975373882 3.5800310957 0 -1 0
75 51 1 0.0 10.2588072698 17.6247807813 6.4377779744 2 1 0
76 92 1 0.0 14.1899032249 15.2366038017 3.2983997917 0 0 0
77 92 1 0.0 14.0013494716 14.3182938497 3.6037393866 0 -1 0
78 51 1 0.0 15.4328378696 18.3127729515 5.9241954956 2 -1 0
79 92 1 0.0 15.1999728161 11.9259708451 5.3955162323 0 -1 0
80 81 1 0.0 17.6046735107 11.5902144298 2.9692042189 0 -1 0
81 81 1 0.0 17.3764569786 12.8185927261 3.1074085629 1 -2 0
82 81 1 0.0 16.8641503709 16.9764098598 3.4281582123 0 -1 0
83 81 1 0.0 20.7816542443 13.1140830074 3.2623481959 1 -2 0
84 81 1 0.0 21.3934755044 16.2587093348 2.9877112117 0 -1 0
85 67 1 0.0 18.526445872 12.6690925023 6.012565245 2 0 0
86 56 1 0.0 25.755539833 15.2714029841 3.3971846044 0 0 0
87 56 1 0.0 23.6537907622 17.3643644588 5.3370417507 0 1 0
88 71 1 0.0 27.2107104074 12.7418967454 7.0355230588 1 0 0
89 56 1 0.0 28.2031699418 16.1938314103 6.1181962542 0 0 0
90 56 1 0.0 26.1497738753 16.2812087207 8.0531646421 0 0 0
91 21 1 0.0 0.942873566 18.0228761168 6.8008352792 0 0 0
92 16 1 0.0 2.20619186 20.2396946632 3.1482287573 1 1 0
93 16 1 0.0 29.6600951568 20.6558174915 5.5759102781 1 0 0
94 21 1 0.0 4.3035682503 18.118839971 5.6635171842 0 -1 0
95 16 1 0.0 6.1012223259 20.5635669587 3.3252999195 1 0 0
96 16 1 0.0 4.1641346488 22.7245180304 2.9746953529 1 0 0
97 37 1 0.0 5.3631307924 22.4139583727 6.2471125667 1 -1 0
98 37 1 0.0 9.4241549136 18.390961027 3.4597054139 1 0 0
99 16 1 0.0 6.8729993413 21.372509833 3.0406670942 1 0 0
100 37 1 0.0 8.7938680464 18.6046963733 3.6488716386 1 0 0
101 37 1 0.0 10.7144194946 22.4848156388 3.1679794285 1 0 0
102 37 1 0.0 10.7988684417 21.75843608 3.2014552421 1 0 0
103 16 1 0.0 8.921900055 21.0689316122 6.4918946371 0 0 0
104 37 1 0.0 12.7591361398 18.1303019804 3.2063680675 1 0 0
105 37 1 0.0 13.2820247198 18.3291383848 2.8292345702 1 0 0
106 37 1 0.0 13.9463665275 22.0347228978 3.276203383 1 0 0
107 61 1 0.0 16.9251153756 23.1942600158 3.0481125237 1 0 0
108 51 1 0.0 12.6497290395 20.4766060389 5.6816896481 1 1 0
109 51 1 0.0 16.0880788681 21.3899530624 6.4594761198 1 1 0
110 39 1 0.0 11.0523740083 24.1873664124 9.2414725808 1 0 0
111 81 1 0.0 19.7141491278 17.124402046 5.4127601764 0 -1 0
112 81 1 0.0 18.9902201463 20.2610299887 3.1427062959 0 -1 0
113 81 1 0.0 16.1388001007 19.2200052687 3.0511880504 0 0 0
114 61 1 0.0 18.9151760385 23.1785568546 3.0368050109 1 -1 0
115 61 1 0.0 19.7806548086 24.9648837276 3.2293888401 1 0 0
116 61 1 0.0 20.8535481725 24.0885140347 3.0809543114 1 -1 0
117 61 1 0.0 20.8701344356 25.4726156077 6.1608910162 1 -1 0
118 12 1 0.0 29.2969636189 16.5251316003 2.9155830349 0 1 0
119 12 1 0.0 27.6107006374 18.698968616 3.5333667814 0 0 0
120 56 1 0.0 22.0992925803 19.2188887069 3.1374125381 0 0 0
121 56 1 0.0 22.5485345664 19.7534799079 3.4497349296 0 0 0
122 3 1 0.0 25.5093554341 22.9796564893 3.1599741066 1 -1 0
123 56 1 0.0 23.3336409966 19.9799333746 7.3582506142 0 0 0
124 3 1 0.0 24.4403591165 22.9710903467 5.236172518 1 -1 0
125 62 1 0.0 3.1042447896 27.8861291617 2.9851889174 1 1 0
126 37 1 0.0 6.4009629444 24.7948506921 4.3204924113 1 -1 0
127 62 1 0.0 1.9353841927 25.5908428827 2.9106718605 2 0 0
128 16 1 0.0 2.7789239892 24.7175127618 6.4076255972 1 0 0
129 77 1 0.0 13.3935524518 27.3595771574 3.2937128005 1 0 0
130 37 1 0.0 8.4447349739 24.9946468544 2.7676970616 1 0 0
131 77 1 0.0 8.9646872385 29.2443634875 2.8999593593 1 0 0
132 77 1 0.0 12.2669721614 29.1206120989 2.9535582453 1 0 0
133 77 1 0.0 12.3713854667 25.3618578055 3.4353379937 1 -1 0
134 77 1 0.0 17.1122147523 29.1698081338 3.0431691193 1 -1 0
135 77 1 0.0 11.3877052481 26.3837524218 3.082265541 1 0 0
136 39 1 0.0 15.3855295368 25.5634653031 4.9196142203 1 0 0
137 39 1 0.0 15.0677760103 28.6124341128 5.6588020205 1 0 0
138 39 1 0.0 18.7991994334 28.4667074457 5.6769120465 1 0 0
139 61 1 0.0 18.0674147838 26.3894186475 3.2185500554 1 -1 0
140 61 1 0.0 20.2253292617 27.9969677927 3.0104348953 1 -1 0
141 61 1 0.0 23.6991811989 26.5192605192 4.0412717923 1 -1 0
142 23 1 0.0 20.0650434979 1.54790332 4.9280210889 0 0 0
143 23 1 0.0 17.2187724677 1.869386644 5.8524734157 1 -2 0
144 23 1 0.0 22.2633425882 0.0461898638 3.6198833185 0 0 0
145 23 1 0.0 22.7019750051 0.1707304447 3.3992888809 0 1 0
146 3 1 0.0 0.4278805746 22.6812662095 3.3261189577 1 -1 0
147 3 1 0.0 29.491518383 24.7790813727 6.4470560175 0 -1 0
148 61 1 0.0 23.7467048816 25.9545391746 4.3173633854 1 -1 0
149 3 1 0.0 26.9424231731 25.5912276331 3.113134514 1 -1 0
150 62 1 0.0 0.0799251113 26.6259768996 3.1634831107 2 0 0
151 3 1 0.0 26.5785993165 27.3425407357 5.8014772016 1 -1 0
152 11 1 0.0 1.9835951995 0.2586117556 9.0973751896 1 1 0
153 57 1 0.0 5.1043845418 1.6594357565 8.1578716514 1 1 0
154 59 1 0.0 3.9685053628 26.835578859 10.9284625556 2 0 0
155 62 1 0.0 1.9979762416 28.0751421894 6.4199880604 3 0 0
156 11 1 0.0 2.2408581365 29.9245979416 10.9866124887 1 -1 0
157 66 1 0.0 2.385037979 2.8915062311 11.6413312168 1 0 0
158 42 1 0.0 5.0185345484 3.3270169573 5.3274882145 1 0 0
159 32 1 0.0 7.171203501 4.7453499227 9.7703273538 2 0 0
160 32 1 0.0 8.947906064 5.2418110197 6.6634999342 2 0 0
161 42 1 0.0 7.4013586712 2.3051154042 4.8063429236 1 0 0
162 46 1 0.0 9.0858122623 0.6680039233 10.4760662368 1 -1 0
163 42 1 0.0 9.0922171052 1.5142472045 7.5389141991 1 0 0
164 70 1 0.0 15.1324900359 1.9378862707 12.8941468212 2 0 0
165 70 1 0.0 17.7077357619 2.7045398195 10.9163005762 2 0 0
166 70 1 0.0 11.7656330351 3.1528016206 10.083139308 1 0 0
167 70 1 0.0 15.044274722 2.756370709 9.640504012 2 0 0
168 70 1 0.0 17.3901163894 2.9611775817 13.3647562719 2 0 0
169 23 1 0.0 25.0176769117 4.5983742718 7.3971609595 -1 0 0
170 63 1 0.0 21.9801804354 5.4861931836 9.2306048061 1 0 0
171 23 1 0.0 23.5944442763 6.3425945655 6.5181059634 -1 0 0
172 63 1 0.0 24.1429470494 2.6371531936 9.7289640241 1 0 0
173 63 1 0.0 19.3653568672 2.7427892245 8.3286809091 1 0 0
174 63 1 0.0 20.2580515348 6.2573777582 12.1311566776 1 0 0
175 63 1 0.0 23.1571946693 1.4410036801 11.790701717 1 0 0
176 66 1 0.0 26.0560011897 5.996809752 11.7833756135 1 0 0
177 17 1 0.0 28.1949774899 29.8385195647 8.2033400108 0 0 0
178 17 1 0.0 27.0180108301 2.1178484994 11.5716010751 -1 1 0
179 66 1 0.0 29.8631520909 4.2932186522 9.9155208348 0 -1 0
180 66 1 0.0 26.3315299362 6.9517828981 9.0692566263 1 0 0
181 57 1 0.0 3.7245103844 3.9105979013 8.8484037831 1 1 0
182 32 1 0.0 4.527268269 10.1162069469 10.3865628027 2 0 0
183 32 1 0.0 4.1806129393 7.4341529658 11.3035009816 2 0 0
184 66 1 0.0 2.1486919093 9.5687834159 9.1088333119 1 0 0
185 26 1 0.0 3.3126172535 12.9891554018 8.0559626054 1 0 0
186 58 1 0.0 29.2752186155 11.6807457957 9.7525198216 1 1 0
187 58 1 0.0 1.8961082354 13.613622898 11.0006984876 2 0 0
188 32 1 0.0 7.8590775987 6.0335694101 5.658418362 1 0 0
189 92 1 0.0 10.7417778126 10.6637737425 7.3684433957 0 0 0
190 32 1 0.0 5.7256660859 7.1261222951 6.1234857911 1 0 0
191 32 1 0.0 4.396817586 7.0832711199 8.2664031017 1 0 0
192 32 1 0.0 9.6419914831 8.1994470504 10.2234732592 2 1 0
193 32 1 0.0 7.1332372601 10.5585581501 9.0536839198 2 1 0
194 67 1 0.0 12.5820537747 10.6881694919 10.8906157248 2 -1 0
195 27 1 0.0 14.0244242254 7.5830938924 7.0021852514 0 0 0
196 70 1 0.0 11.9083840889 4.637711072 8.6278723548 1 0 0
197 92 1 0.0 14.0027396583 10.4279826769 7.3853280644 0 0 0
198 70 1 0.0 12.8392199369 7.1304901987 9.9198700728 1 0 0
199 67 1 0.0 16.0866381441 9.2287095722 10.1562379695 1 0 0
200 70 1 0.0 16.1239573799 6.5248886595 11.7400152757 1 0 0
201 70 1 0.0 17.0254322738 5.7253891035 8.9301470938 1 0 0
202 67 1 0.0 20.1332124448 8.771363673 10.5341535173 2 0 0
203 71 1 0.0 21.7364892965 10.5181159512 6.6395473382 1 0 0
204 67 1 0.0 20.3906787284 12.4443085864 10.9701218511 2 0 0
205 67 1 0.0 17.947758029 10.1786337442 12.1527945274 2 1 0
206 7 1 0.0 27.0913453157 7.1335055181 5.9852812612 1 -1 0
207 66 1 0.0 0.4538977848 7.0937604796 7.7422045278 1 0 0
208 71 1 0.0 23.9931654625 8.8113476135 9.8170026227 1 0 0
209 66 1 0.0 27.832481417 8.6025805778 9.3865526553 1 0 0
210 66 1 0.0 27.7449195577 9.3474100493 12.2621951474 1 0 0
211 66 1 0.0 1.8540632316 9.5245732211 12.2456160369 1 0 0
212 12 1 0.0 0.3519144785 15.483097502 8.6529355483 1 0 0
213 26 1 0.0 5.1019752863 13.8236226723 7.9903308069 1 0 0
214 26 1 0.0 5.029939072 16.1310843442 9.7800444352 1 0 0
215 58 1 0.0 29.9078709751 12.9031131076 14.8121775353 1 0 0
216 21 1 0.0 4.5656702324 15.8932536143 5.9831906255 0 0 0
217 58 1 0.0 0.6571367313 16.0281646985 13.1186482801 2 1 0
218 26 1 0.0 7.5413198967 13.1355689063 6.9829815068 1 0 0
219 26 1 0.0 9.7213631405 12.4978552119 10.9701736209 1 1 0
220 21 1 0.0 7.1382871456 17.7813271342 8.2664776858 1 -1 0
221 26 1 0.0 8.4951397986 15.72135597 11.0567411329 1 1 0
222 22 1 0.0 11.5628179418 15.531067483 10.762127609 1 -1 0
223 51 1 0.0 11.1426302971 13.9687490577 7.6326015757 1 0 0
224 51 1 0.0 14.149897225 14.8943114564 11.6817940745 0 0 0
225 51 1 0.0 13.8182833312 13.862501243 8.0949587685 2 0 0
226 51 1 0.0 16.1281807975 16.0295834707 6.2168818229 2 0 0
227 67 1 0.0 16.5664347443 12.2835110932 8.5264398101 2 0 0
228 22 1 0.0 12.9784229989 16.7769574496 7.4472180317 1 -1 0
229 67 1 0.0 17.36314037 12.9312520605 12.3582797864 2 1 0
230 51 1 0.0 16.1857394549 15.7367537371 12.260293377 0 0 0
231 71 1 0.0 21.0848302715 12.3048219598 7.1748250296 2 0 0
232 56 1 0.0 22.7899731191 14.3817182508 5.678518815 0 0 0
233 90 1 0.0 19.0881977212 17.1138270756 11.9711911542 1 0 0
234 67 1 0.0 19.2493078954 14.4978020082 8.5812794779 2 0 0
235 51 1 0.0 18.2159065609 19.3589373369 9.5018889053 0 0 0
236 71 1 0.0 23.0976870668 11.0409410526 9.7692367204 1 0 0
237 56 1 0.0 22.5017395841 17.0403355675 8.8208538454 0 0 0
238 90 1 0.0 20.2870968917 17.1896797046 11.4552699876 0 0 0
239 90 1 0.0 22.2738295623 19.7049835449 10.6450633337 1 0 0
240 58 1 0.0 26.0076172925 12.8609373585 14.6072810498 1 0 0
241 71 1 0.0 24.2733345708 13.9933956779 9.0050191986 1 0 0
242 58 1 0.0 27.2236060637 12.0213789137 10.8324869807 1 1 0
243 58 1 0.0 27.5413668348 15.2981212684 12.0050078929 1 1 0
244 12 1 0.0 4.4819753014 19.9330197783 8.6828283318 1 0 0
245 12 1 0.0 2.3175731348 21.3741104601 6.3754449317 1 0 0
246 89 1 0.0 2.208358193 18.8644636089 10.2453355232 1 0 0
247 12 1 0.0 29.2437333798 22.0450092596 8.228634011 0 0 0
248 89 1 0.0 2.0080072885 21.5455274796 9.8727366042 2 0 0
249 16 1 0.0 7.3603951163 21.7965658762 9.1387509299 1 0 0
250 16 1 0.0 7.2895532245 19.6479932658 6.0040534667 1 0 0
251 22 1 0.0 10.5511611288 18.2609426909 12.4476392116 1 -1 0
252 22 1 0.0 9.8474189141 18.2410786993 9.8945541842 1 -1 0
253 22 1 0.0 11.3820462887 20.7380404641 9.052147475 2 0 0
254 22 1 0.0 10.600623308 21.6224707078 12.3368240904 2 0 0
255 89 1 0.0 5.8506122182 18.0437147277 12.3323800676 1 0 0
256 39 1 0.0 14.4846174688 23.9587922679 7.997004531 1 0 0
257 22 1 0.0 13.0470157969 19.8086938516 12.6955913927 1 -1 0
258 22 1 0.0 14.837660268 18.7763078325 9.6229127015 1 -1 0
259 13 1 0.0 17.7322892934 22.9231761364 8.8630281395 -1 -1 0
260 22 1 0.0 16.185584208 18.8079657261 12.4178588449 0 -2 0
261 81 1 0.0 19.3264852026 20.3922752086 6.7188285485 0 -1 0
262 13 1 0.0 20.9027820286 22.1073914216 9.5301434545 1 -1 0
263 13 1 0.0 18.738623697 21.3472843891 11.8335770494 1 -1 0
264 39 1 0.0 17.8059084804 24.3014850098 6.3202060718 1 0 0
265 61 1 0.0 21.4412538247 23.3612225362 6.2443896146 1 -1 0
266 39 1 0.0 19.5528299387 26.0654654374 9.2344766576 1 0 0
267 13 1 0.0 22.462379803 24.9445892249 11.2963388334 1 -1 0
268 90 1 0.0 24.3937389312 22.0674957097 11.3915939132 0 -1 0
269 12 1 0.0 28.5351341954 19.9593641042 9.7391771418 0 0 0
270 56 1 0.0 25.9592677457 18.7658995635 6.1305157513 0 1 0
271 3 1 0.0 25.9452363906 21.5501289055 7.4941235035 1 0 0
272 3 1 0.0 23.3796381151 24.9440238133 8.2075619643 1 -1 0
273 3 1 0.0 26.7091309209 24.750652927 7.5121917388 1 -1 0
274 16 1 0.0 3.8053657447 23.8712047122 8.9447549801 1 0 0
275 59 1 0.0 7.2637889415 24.7800388333 8.7244270987 1 0 0
276 59 1 0.0 5.2563655048 26.4547235166 6.7592747152 1 0 0
277 59 1 0.0 29.6226433269 24.9300832086 10.1225106358 0 0 0
278 59 1 0.0 1.4225007353 26.911779661 9.0251174861 1 0 0
279 59 1 0.0 6.8592142668 24.2633099016 11.8861806745 1 0 0
280 59 1 0.0 4.761128933 26.43670798 12.3296043825 2 0 0
281 59 1 0.0 6.4005687672 28.6190778851 8.8363722101 2 -1 0
282 77 1 0.0 7.9180534007 28.3840471038 3.5008846897 1 0 0
283 77 1 0.0 9.2616185083 26.5741875493 5.6901792183 1 -1 0
284 59 1 0.0 10.1151615341 27.4151746999 10.1240941701 2 -1 0
285 41 1 0.0 11.0760595777 25.2068302715 12.6110742446 2 -1 0
286 41 1 0.0 13.7551171458 26.184714244 10.0062515673 1 -1 0
287 77 1 0.0 12.5554550966 26.5461406741 6.7071357412 1 -1 0
288 59 1 0.0 9.7413433167 27.5976599928 13.9487512017 3 -1 0
289 41 1 0.0 12.7085924984 29.7783813321 11.9206205035 1 -1 0
290 39 1 0.0 16.7021201497 26.8677101882 8.3911034932 1 0 0
291 41 1 0.0 16.559317819 24.952096604 11.5359741018 1 -1 0
292 39 1 0.0 15.9234277558 29.5967903743 7.5451959615 1 0 0
293 46 1 0.0 12.8812835833 29.6989725496 8.2834931823 1 -1 0
294 41 1 0.0 18.8245230236 26.458780577 12.5968804536 1 -1 0
295 39 1 0.0 19.0161896327 29.1582879931 8.3489485432 1 0 0
296 13 1 0.0 21.2300074811 25.5982383549 14.5284725933 -1 -1 0
297 63 1 0.0 22.5221116677 0.2294748178 8.9322242291 1 0 0
298 63 1 0.0 21.5551528885 28.1618008976 12.5342858486 1 -1 0
299 41 1 0.0 19.0778672543 0.1242862732 11.7851491784 1 0 0
300 68 1 0.0 23.2567436133 25.2009500272 17.0153466159 1 0 0
301 17 1 0.0 24.9115948591 28.492944612 11.100164514 0 0 0
302 17 1 0.0 25.4983250303 0.222456497 6.8579782 0 1 0
303 17 1 0.0 26.2508435535 0.7525892082 12.8112682734 0 1 0
304 17 1 0.0 28.4486028507 27.2692831719 8.621988125 0 0 0
305 3 1 0.0 24.0560083328 26.8257486273 8.0182720713 1 -1 0
306 17 1 0.0 26.3384436959 25.8776473974 11.9049499441 0 0 0
307 68 1 0.0 25.647610501 23.6519585071 14.4752660301 1 0 0
308 11 1 0.0 4.6169547563 4.4025433059 13.3586589291 1 0 0
309 11 1 0.0 3.7908872234 2.0230798914 14.8917387528 2 0 0
310 93 1 0.0 3.1311494575 29.0453114836 14.2422052977 1 0 0
311 11 1 0.0 29.8498798975 1.6231132197 13.2405681117 0 0 0
312 93 1 0.0 28.4136244363 2.4501391338 16.643451445 0 0 0
313 46 1 0.0 9.7815805623 1.022363875 13.7296966653 1 -1 0
314 53 1 0.0 6.0774150714 1.8746605491 11.376467159 1 0 0
315 53 1 0.0 6.0904908932 0.2318124326 14.5736403619 2 -1 0
316 53 1 0.0 7.2515218969 28.1666307781 12.1567002812 1 -1 0
317 53 1 0.0 7.8076974323 4.3160973841 14.2898563828 1 1 0
318 46 1 0.0 11.6856787213 0.4058741955 18.040312611 1 0 0
319 38 1 0.0 13.0929537298 3.0590185316 18.140246257 1 1 0
320 31 1 0.0 15.2183170235 5.129999773 19.4799820835 1 0 0
321 91 1 0.0 12.3044831419 6.3770176007 17.6113275573 1 -1 0
322 46 1 0.0 10.9238092337 2.7383465972 16.1258931273 1 0 0
323 96 1 0.0 18.3608792004 7.4856334122 15.0638341467 0 -1 0
324 70 1 0.0 14.2395113419 4.545999387 11.7959988077 1 0 0
325 46 1 0.0 14.1142780548 4.5316614426 15.3581364243 1 0 0
326 46 1 0.0 16.0710045966 2.9783773688 16.7671253612 1 0 0
327 63 1 0.0 19.7057565736 2.343482754 15.2245775271 1 0 0
328 96 1 0.0 21.1696915293 5.7881519139 15.719142027 0 0 0
329 63 1 0.0 20.9244879685 3.0717253412 12.7095283394 1 0 0
330 79 1 0.0 20.8653400768 0.7075354623 18.9279328734 0 2 0
331 96 1 0.0 22.3657473108 7.2273992897 17.5514301705 1 0 0
332 79 1 0.0 17.5356600681 2.7190228397 19.4123002408 1 1 0
333 17 1 0.0 24.9370549737 3.5672304932 13.2040922275 0 0 0
334 11 1 0.0 29.0855703755 4.4557283397 12.675799503 0 1 0
335 93 1 0.0 26.8772888209 1.5294941366 15.7952494326 0 0 0
336 17 1 0.0 23.4878572515 0.260062041 14.7021428443 0 0 0
337 78 1 0.0 25.9899823236 5.5228140436 16.4540998073 2 0 0
338 98 1 0.0 25.320118686 6.0320786717 21.2484228299 1 1 0
339 93 1 0.0 0.9953928044 1.660140091 19.8210486296 2 0 0
340 72 1 0.0 6.6351819683 10.1021748936 12.4188105405 2 0 0
341 11 1 0.0 1.3319656854 6.2080642245 12.141796467 1 1 0
342 72 1 0.0 4.168481787 10.06819869 14.4568334652 2 0 0
343 72 1 0.0 2.9267818092 13.4175995944 15.472594793 2 0 0
344 72 1 0.0 1.3882637435 10.9934085124 18.9321208613 1 0 0
345 72 1 0.0 1.4789641682 9.3676425918 16.5435017831 1 0 0
346 11 1 0.0 3.0844247262 7.1414674462 14.4702387053 2 0 0
347 98 1 0.0 28.1291817424 7.8117064221 18.708012931 1 0 0
348 72 1 0.0 5.9249175241 12.8364025377 10.8917988467 2 0 0
349 72 1 0.0 3.8986219556 14.5693463075 13.531343719 2 0 0
350 91 1 0.0 7.4651832111 7.2363871936 12.5885216603 2 0 0
351 91 1 0.0 10.3823378417 9.3321230692 18.5890630297 1 -1 0
352 32 1 0.0 9.3939313361 7.0657882267 15.1895524599 2 2 0
353 72 1 0.0 7.6875383386 13.6297724151 13.8597684553 2 0 0
354 91 1 0.0 6.0542663201 8.0370289883 16.0696185548 2 1 0
355 91 1 0.0 9.5335521661 10.6057841633 15.7045495693 1 -1 0
356 91 1 0.0 10.9085056439 9.1139052545 13.5455601285 1 -1 0
357 91 1 0.0 11.6338747294 5.9124716473 13.1479787422 1 -1 0
358 91 1 0.0 13.6997787823 7.765255198 14.1741655628 2 0 0
359 55 1 0.0 13.364164857 11.5147232571 17.6089470155 1 0 0
360 91 1 0.0 14.8699202923 8.0233095045 18.0404905988 1 0 0
361 55 1 0.0 15.5970043839 9.9198894295 15.2402767895 3 0 0
362 96 1 0.0 20.6745928334 10.1404922133 13.9116636936 0 0 0
363 96 1 0.0 23.4423036006 7.7587178733 14.5785568736 1 0 0
364 96 1 0.0 18.4955995169 9.0912138706 16.9711834666 0 -1 0
365 96 1 0.0 22.0753576464 9.9408949648 16.1624791854 0 -1 0
366 96 1 0.0 22.8129093714 11.1225902436 18.7454423205 0 -1 0
367 96 1 0.0 25.5307183119 7.9614137838 14.3771326146 1 0 0
368 55 1 0.0 19.6407082999 11.6579582663 18.5818502094 2 1 0
369 96 1 0.0 26.4329225888 10.7401502853 16.8616943168 1 0 0
370 98 1 0.0 25.5263923808 8.2328661564 19.8132022405 1 1 0
371 66 1 0.0 29.2965458718 7.378525152 14.1409059829 0 0 0
372 98 1 0.0 27.334673523 11.2693956549 20.1530604499 0 1 0
373 88 1 0.0 24.3914769236 13.321819126 22.7710238643 0 0 0
374 89 1 0.0 3.6125187435 19.5239421406 16.0842804297 1 0 0
375 89 1 0.0 3.3529536076 17.7346894421 14.3490530122 1 0 0
376 72 1 0.0 3.2965018479 14.6162182843 18.1590949435 2 0 0
377 88 1 0.0 1.7185223825 13.3065994045 21.2636206638 1 0 0
378 58 1 0.0 0.5977751787 17.4917346999 15.6441948356 1 0 0
379 88 1 0.0 29.3332849207 13.3492476432 18.580931775 1 0 0
380 22 1 0.0 13.5842226557 17.0126073351 14.2175952866 0 0 0
381 94 1 0.0 8.1921078412 17.3452233069 15.7713506106 1 0 0
382 72 1 0.0 5.3581173416 15.5131105304 16.1278483503 2 0 0
383 94 1 0.0 8.5237054583 13.7561726241 16.9240566732 0 1 0
384 94 1 0.0 14.769557508 15.4080995671 20.5841774346 1 0 0
385 94 1 0.0 12.8065647044 17.3351069122 18.7186892454 1 0 0
386 94 1 0.0 11.8534756238 16.9852041625 17.2929224199 1 0 0
387 47 1 0.0 9.8183307995 16.9410730896 21.8835800887 2 0 0
388 94 1 0.0 14.1767305077 12.198709999 20.6015600942 1 0 0
389 94 1 0.0 13.3441810554 13.0365682924 13.849447543 1 0 0
390 55 1 0.0 14.2065304317 14.9368906667 16.7690165298 1 0 0
391 55 1 0.0 17.006687998 14.5934212357 18.2450622706 2 0 0
392 90 1 0.0 21.0923660449 14.1585214084 14.0630886769 1 0 0
393 20 1 0.0 19.2732346428 16.4652184568 16.7306711046 0 0 0
394 94 1 0.0 16.1416792352 13.6971776744 14.8878092705 1 0 0
395 71 1 0.0 25.1234010583 10.5323650946 12.8549031461 1 0 0
396 90 1 0.0 22.0555782797 14.7184596281 13.9378681322 0 0 0
397 90 1 0.0 23.5161605969 17.385668848 12.2199870519 0 0 0
398 76 1 0.0 27.8940557665 15.4828210347 16.6518740186 0 0 0
399 71 1 0.0 24.1883806277 12.3615941648 11.8676489562 1 0 0
400 90 1 0.0 24.8493317118 18.4904360514 11.8180087007 1 0 0
401 55 1 0.0 18.9871132193 13.3152197519 16.3733596181 2 0 0
402 76 1 0.0 21.762762857 14.9505498689 17.7966353394 1 0 0
403 76 1 0.0 22.6868365397 17.3930008502 17.1551718756 1 0 0
404 88 1 0.0 0.6531875931 16.0669142407 19.2792302347 1 0 0
405 88 1 0.0 25.6830826385 13.9007567567 19.6181029396 0 0 0
406 58 1 0.0 27.22792542 17.9673694633 13.9359168663 0 0 0
407 58 1 0.0 25.4110622162 15.7889365554 13.7996425052 0 0 0
408 88 1 0.0 27.8973126116 16.241855341 19.8371097843 0 0 0
409 98 1 0.0 27.8366775047 12.7463370078 21.439844657 0 1 0
410 76 1 0.0 27.1429757362 18.9161140893 18.2381834003 1 0 0
411 12 1 0.0 4.0347597741 21.1915074796 12.2013086933 1 -1 0
412 89 1 0.0 6.797427453 20.8187511333 15.2705271358 0 -1 0
413 89 1 0.0 1.1399274239 22.4615361304 14.038520251 1 -1 0
414 18 1 0.0 3.2251007411 26.075091257 16.1423452695 0 1 0
415 44 1 0.0 2.4492721052 20.0630274884 19.2326814219 1 -2 0
416 89 1 0.0 1.1177523679 19.3163303855 12.2267234686 1 -1 0
417 94 1 0.0 11.3398545245 19.5411057881 15.6296347776 1 0 0
418 89 1 0.0 7.334064802 21.0383632345 12.312145103 1 -1 0
419 89 1 0.0 4.306949303 23.5019330095 14.0809415614 1 -1 0
420 83 1 0.0 11.9780502059 25.5042896395 15.7582073529 1 -1 0
421 83 1 0.0 10.7183879491 22.7186546371 17.6077224968 1 -1 0
422 20 1 0.0 21.749972693 17.7570105746 14.2572837441 0 0 0
423 94 1 0.0 16.2358888606 17.3041345478 16.023037378 1 0 0
424 13 1 0.0 15.8503639394 21.7769698065 10.2469128831 -1 -1 0
425 83 1 0.0 14.7735698328 20.4578523962 15.7730690121 0 -1 0
426 20 1 0.0 18.5107871475 19.5088014768 15.3741710253 0 0 0
427 13 1 0.0 15.8202833823 23.0182581594 14.651626144 -1 -1 0
428 83 1 0.0 16.9516143656 19.8073914148 18.2620679567 0 -1 0
429 13 1 0.0 18.9824492518 22.8899728793 13.2553170933 1 -1 0
430 20 1 0.0 24.1942506821 19.3661802418 15.0376624496 0 0 0
431 13 1 0.0 22.6358788906 23.083289643 14.3065345466 1 -1 0
432 90 1 0.0 22.290769067 19.8225839083 11.3438928544 0 -1 0
433 20 1 0.0 19.8559060247 20.0775603337 14.9194835036 0 0 0
434 20 1 0.0 20.7916326896 23.2150667596 16.6570903457 0 0 0
435 20 1 0.0 21.6659369992 20.5314172737 17.9296089736 0 -1 0
436 20 1 0.0 23.9583057677 20.6748061734 16.7864214914 0 1 0
437 90 1 0.0 28.06575565 22.2595737826 12.0588823939 -1 0 0
438 68 1 0.0 26.1230380046 24.2146186571 18.3283542114 2 0 0
439 44 1 0.0 29.5828089325 20.3691937725 15.4785147589 0 -2 0
440 44 1 0.0 27.1994331457 21.1808474582 15.8183718519 0 -2 0
441 68 1 0.0 26.1252893262 26.468832716 19.5252476913 2 0 0
442 68 1 0.0 27.5329206134 26.9564721444 18.2366790994 2 0 0
443 12 1 0.0 2.03442751 24.3298543132 11.8504718019 1 -1 0
444 68 1 0.0 0.2783394283 27.126663797 15.6998868253 1 0 0
445 18 1 0.0 5.6422191828 27.9544017605 17.8683076834 0 1 0
446 93 1 0.0 0.1339349963 27.5709770919 12.8445900759 1 -1 0
447 83 1 0.0 12.6843460759 25.2535339253 18.7062497497 0 -1 0
448 41 1 0.0 7.9235663006 24.3320921071 15.3436146945 2 -1 0
449 53 1 0.0 6.4484252564 26.9137085531 15.1037734623 2 -1 0
450 53 1 0.0 9.0877455364 25.9012631117 18.6287634023 2 -1 0
451 53 1 0.0 9.3308558321 28.7539040992 16.5358609835 1 -1 0
452 53 1 0.0 8.7043542343 0.646630693 18.1401991428 1 0 0
453 83 1 0.0 15.859846181 22.7444077195 20.4568888994 0 -1 0
454 41 1 0.0 13.7765744221 24.2860505489 13.0096526376 2 -1 0
455 46 1 0.0 14.5756147961 29.4398286741 18.2495615553 1 -1 0
456 41 1 0.0 15.0458116971 26.2909332629 14.8537211241 2 -1 0
457 41 1 0.0 14.0908799961 28.7129804339 14.9464270203 1 -1 0
458 46 1 0.0 16.2993642927 29.0524300626 10.7360826739 1 -1 0
459 46 1 0.0 16.8034317986 29.0891249336 15.635821883 1 -1 0
460 68 1 0.0 23.4790931365 28.5480305453 18.6792888616 1 0 0
461 13 1 0.0 18.033745653 24.8195284452 15.3228751471 0 -1 0
462 63 1 0.0 20.1589030603 29.5766311399 14.9854143398 1 -1 0
463 79 1 0.0 20.4726719067 27.8870011443 17.8458010365 0 0 0
464 68 1 0.0 28.3806204303 24.5985787936 15.8706664535 1 0 0
465 17 1 0.0 23.9523141124 27.6849789839 14.2964523238 -1 0 0
466 68 1 0.0 26.2520316149 29.8075701435 19.2743913269 1 0 0
467 68 1 0.0 29.4478518503 29.296564677 17.2464866877 1 -1 0
468 93 1 0.0 27.2962347574 27.9160559913 14.0089152655 0 0 0
469 93 1 0.0 28.8581424896 0.2722520294 21.308983665 1 0 0
470 93 1 0.0 2.1786268982 0.5645348563 17.1996411999 1 0 0
471 48 1 0.0 5.6809772631 4.8455176476 17.8053752319 3 1 0
472 11 1 0.0 1.1094106722 3.5399856661 16.4213970739 2 0 0
473 48 1 0.0 4.5549233808 3.2064849127 18.3015269638 2 1 0
474 48 1 0.0 2.3142245894 4.5347926377 19.7782805411 2 2 0
475 48 1 0.0 5.8365179424 0.2840662489 19.8193072084 3 0 0
476 38 1 0.0 7.6784448882 4.6336332741 21.6888687792 1 1 0
477 36 1 0.0 5.8258812092 2.1403467854 22.9436381677 0 1 0
478 38 1 0.0 8.4934617159 1.9264443129 21.6993311177 0 1 0
479 38 1 0.0 9.0567166591 5.6737729785 18.7470142159 1 1 0
480 38 1 0.0 11.8156311652 5.3234385492 20.3770642671 0 0 0
481 38 1 0.0 9.923266963 6.0991936549 22.9451753367 1 0 0
482 38 1 0.0 10.3739344865 2.5916727404 19.864013533 0 1 0
483 6 1 0.0 10.1700427596 9.469284205 25.4774100768 0 0 0
484 36 1 0.0 11.7335252657 2.8644744978 23.4195905376 1 1 0
485 38 1 0.0 14.7424818085 2.1053997274 21.9832808619 1 1 0
486 38 1 0.0 12.6535313808 7.1324014636 23.5631756475 1 1 0
487 38 1 0.0 14.4530355762 4.2277571298 24.8772273056 1 1 0
488 31 1 0.0 17.8096158403 3.9698904935 24.0321702318 1 0 0
489 31 1 0.0 16.8637923801 6.2576402111 22.7978983059 1 1 0
490 31 1 0.0 21.4590101137 4.7554698933 19.0068264704 1 0 0
491 31 1 0.0 20.4159702602 2.3094463706 22.4414260392 1 0 0