# LAMMPS data file written by OVITO Pro 3.7.4
980 atoms
840 bonds
700 angles
560 dihedrals
1 atom types
1 bond types
1 angle types
1 dihedral types
0.0 30.0 xlo xhi
0.0 30.0 ylo yhi
0.0 45.0 zlo zhi

Atoms  # full

1 52 1 0.0 5.2339284438 4.8927116689 2.9046399629 0 0 0
2 73 1 0.0 7.6803669747 2.126593363 3.0451014376 0 0 0
3 52 1 0.0 4.4554160254 1.6931234829 3.0913696443 0 0 0
4 52 1 0.0 9.3976225919 5.210518401 3.0811813674 -1 1 0
5 97 1 0.0 2.9930399961 1.9245677705 8.0474761162 0 -1 0
6 52 1 0.0 2.2666330809 2.0706035038 3.1718392674 0 0 0
7 73 1 0.0 10.6827896944 2.3158412565 2.8574971254 0 -1 0
8 73 1 0.0 6.9098745401 3.3888153013 6.053846825 0 0 0
9 25 1 0.0 12.8130866445 29.9461232578 6.3933231811 0 0 0
10 55 1 0.0 17.8718282842 4.5069807665 3.3425185776 0 0 0
11 55 1 0.0 18.6207539058 1.9906450139 5.0534092671 0 0 0
12 55 1 0.0 15.9112560393 2.4667089735 3.0779148514 0 0 0
13 21 1 0.0 14.1240565922 4.809235523 2.7712268946 -1 1 0
14 10 1 0.0 16.952575226 0.2276765816 7.1323710805 -1 0 0
15 92 1 0.0 19.9239807525 6.5921921954 5.6430215612 0 1 0
16 55 1 0.0 21.3693831469 3.5851983114 2.8700316692 0 0 0
17 55 1 0.0 21.5736763683 0.2325020592 3.1178190113 0 0 0
18 92 1 0.0 23.4226969638 6.3490429081 2.7954654721 -1 1 0
19 10 1 0.0 21.6294326493 2.5885116434 5.7903266304 -1 1 0
20 92 1 0.0 25.1469920452 6.6576917482 3.023058917 0 1 0
21 92 1 0.0 22.6656759224 5.2274043162 5.7590113997 0 1 0
22 10 1 0.0 19.7103145151 1.3990687807 7.6520187853 -1 0 0
23 52 1 0.0 0.9998701382 4.332992529 3.0617779902 0 0 0
24 91 1 0.0 24.8935440042 3.5312150112 3.2071200809 0 1 0
25 91 1 0.0 27.4951561326 1.2729290122 3.1837590622 0 2 0
26 91 1 0.0 24.3371200715 2.2467299871 3.0071197285 0 1 0
27 91 1 0.0 27.7269102095 1.0612861944 3.0555607252 0 1 0
28 91 1 0.0 28.9774533556 2.9993188834 5.585174806 0 2 0
29 114 1 0.0 25.3083257913 1.6443137714 6.2138072189 0 1 0
30 14 1 0.0 1.2359870551 6.9733942358 6.0984159782 0 0 0
31 45 1 0.0 25.9504323 5.0286303585 5.9279610845 -1 1 0
32 52 1 0.0 3.6289555562 7.5410150043 2.9747627064 0 -1 0
33 52 1 0.0 7.1926103383 7.827926204 3.0309288535 0 -2 0
34 9 1 0.0 3.2164233566 10.6644007989 3.0596530237 -1 1 0
35 20 1 0.0 3.7361566206 8.8583409202 6.2544453566 -1 1 0
36 20 1 0.0 0.5486353593 10.3710203433 5.8776386793 0 2 0
37 21 1 0.0 12.3033222177 7.323062539 2.858151032 -1 1 0
38 9 1 0.0 5.4543318327 10.649051677 3.0633478002 0 1 0
39 75 1 0.0 10.0585216674 7.6742193487 5.7976975523 1 -1 0
40 9 1 0.0 6.2487513039 13.1288316289 3.0303313495 0 1 0
41 43 1 0.0 8.6409606757 11.1604569887 3.5994809425 0 0 0
42 20 1 0.0 6.1508439183 6.4706409968 5.7575259341 -1 1 0
43 21 1 0.0 15.544916951 8.0237305031 2.95739335 -1 1 0
44 21 1 0.0 16.864396785 7.6815389197 5.5106778942 -2 1 0
45 75 1 0.0 13.7572101123 6.9187682462 6.0096181237 1 -1 0
46 43 1 0.0 10.1645362225 9.7682436182 3.0620917204 0 0 0
47 58 1 0.0 18.3109549224 10.7469215259 3.2752768991 -2 0 0
48 5 1 0.0 15.4853977092 10.719899538 4.724848415 -1 0 0
49 92 1 0.0 19.0779533477 7.4025749965 3.1062485286 -1 1 0
50 92 1 0.0 22.1953065422 7.8904219397 3.1238606394 -1 1 0
51 58 1 0.0 21.3586845672 11.1249860491 2.9612833076 -1 0 0
52 92 1 0.0 23.998827112 8.6448654695 2.9521638522 0 1 0
53 58 1 0.0 23.1289814523 8.154961005 6.2326215646 -1 0 0
54 14 1 0.0 28.3028979966 5.5577505714 3.3452197422 -1 1 0
55 14 1 0.0 0.118924711 7.2633619185 3.3113557203 0 0 0
56 14 1 0.0 26.0029795972 9.6361912189 6.6234189235 0 1 0
57 103 1 0.0 27.3235396653 9.4564219189 3.315779605 0 0 0
58 45 1 0.0 28.0074153596 7.6930683711 5.9111326493 -1 1 0
59 14 1 0.0 27.9338813721 11.7080326044 6.3498627264 0 1 0
60 103 1 0.0 29.323100225 10.5890211604 3.1982966944 0 -1 0
61 9 1 0.0 2.6946550858 13.8525245891 3.1607220276 0 0 0
62 9 1 0.0 1.4377923349 14.3160275119 2.8998243274 -1 0 0
63 9 1 0.0 3.8861832805 16.574179867 3.1335828347 0 0 0
64 88 1 0.0 0.0291396766 17.1263193168 3.4123899949 0 0 0
65 88 1 0.0 1.2700963117 16.8468242666 5.3719488178 0 0 0
66 88 1 0.0 1.319576299 18.5238266308 3.9147928472 -2 0 0
67 9 1 0.0 4.6332829042 15.8882131991 3.3559875473 0 0 0
68 43 1 0.0 11.3064914385 10.9922680567 5.7116374201 0 0 0
69 26 1 0.0 7.2771979895 17.4391080214 5.8250434469 0 -1 0
70 43 1 0.0 8.8386095361 14.9547216528 3.9263827231 0 0 0
71 5 1 0.0 14.3758295316 16.1026615413 3.1881590673 -1 1 0
72 43 1 0.0 12.9617681173 10.1633869642 3.4995637757 0 0 0
73 43 1 0.0 12.6857943185 13.3834524226 2.9811833887 0 0 0
74 43 1 0.0 10.5933216936 15.9172350978 3.1772978068 0 0 0
75 102 1 0.0 16.9235808232 20.086205874 3.0277425978 -1 0 0
76 5 1 0.0 17.1806112193 16.1107040056 8.3337054103 0 -1 0
77 5 1 0.0 14.0246306942 16.5116487267 5.8102494126 -1 1 0
78 5 1 0.0 15.6266982393 14.1130197078 2.9870866396 -1 -1 0
79 62 1 0.0 19.3558016791 14.5372589203 2.9719597978 0 0 0
80 5 1 0.0 17.6222239248 13.3322420061 5.5666290601 -1 -1 0
81 62 1 0.0 17.3366184621 16.8798309657 3.3671142482 -1 0 0
82 62 1 0.0 22.1254679877 15.177879319 5.2789699056 0 0 0
83 103 1 0.0 24.821199622 11.4386855402 3.5947618383 0 0 0
84 103 1 0.0 29.3705824221 11.9825057393 3.1745651012 0 -1 0
85 103 1 0.0 27.964971512 12.1264676433 3.068814194 0 -1 0
86 103 1 0.0 26.9371722457 15.4054615217 3.1476568559 -1 0 0
87 103 1 0.0 24.585013866 13.8516361589 3.1209543651 -1 0 0
88 88 1 0.0 1.4449456694 17.9131173274 5.4212993245 0 0 0
89 13 1 0.0 4.3335548364 19.5583816212 2.8393560136 0 0 0
90 13 1 0.0 2.1137662042 21.5561747452 3.0020727676 0 0 0
91 13 1 0.0 5.5719333633 20.4152756744 5.6222944798 0 0 0
92 13 1 0.0 1.5596224495 22.7564861473 3.244832431 0 0 0
93 29 1 0.0 7.4765783102 18.1273230935 2.9540588914 0 -1 0
94 29 1 0.0 9.1792096227 18.9695653328 3.0138553262 0 -1 0
95 29 1 0.0 6.9281237379 21.6765157278 3.1744405487 0 -1 0
96 29 1 0.0 11.1744111129 22.5475780029 3.0009193809 0 -1 0
97 29 1 0.0 8.0165583931 21.8568412374 3.0313586396 0 -1 0
98 26 1 0.0 8.9503254474 20.0494301587 6.3805095325 0 0 0
99 26 1 0.0 9.5245258511 23.0987099769 5.5274588557 0 0 0
100 102 1 0.0 17.4169636624 20.9044983708 3.6438758466 -1 -1 0
101 29 1 0.0 13.334750831 19.4233960143 3.0997792285 0 -1 0
102 102 1 0.0 15.0178822835 22.3150909652 3.6261141199 0 0 0
103 102 1 0.0 14.4426334017 22.1573721164 2.9562242019 -1 0 0
104 100 1 0.0 12.9925689385 22.4847550679 5.9708737089 0 -1 0
105 100 1 0.0 14.6909369654 19.7241774448 5.9260727683 0 -1 0
106 19 1 0.0 22.7566357196 17.4427672559 3.1830277262 -1 0 0
107 102 1 0.0 16.7013197962 24.1922580936 6.4896387321 -1 0 0
108 69 1 0.0 18.1159727778 23.8678982761 3.051229624 1 -1 0
109 102 1 0.0 19.9885145869 18.9166466312 3.3808969572 -1 -1 0
110 102 1 0.0 18.2952445144 22.4326924435 6.9210452204 -1 0 0
111 69 1 0.0 21.4481162737 22.2987601512 5.9844798287 2 -1 0
112 62 1 0.0 23.3061127876 21.8116125214 3.9062882851 0 0 0
113 88 1 0.0 29.1599196442 21.7015734073 4.7473866646 -1 0 0
114 88 1 0.0 28.9475437278 20.3263666439 3.4219262926 -1 0 0
115 19 1 0.0 26.1380316756 19.0310944903 3.5340206049 -1 0 0
116 19 1 0.0 26.6911161852 22.3647823465 3.1274124565 -1 0 0
117 13 1 0.0 3.7393588463 23.0639972972 2.8816569228 -1 0 0
118 13 1 0.0 5.5410883686 23.419538138 5.5353706176 0 0 0
119 13 1 0.0 3.2468787206 25.1783231515 3.7275867355 0 0 0
120 73 1 0.0 6.8168616955 28.6651840301 3.233590596 0 -2 0
121 97 1 0.0 5.5328155079 26.3380073178 5.7009695223 -1 -1 0
122 85 1 0.0 3.2206798522 29.1148615736 6.0047762444 1 1 0
123 85 1 0.0 3.5260110785 28.5791365981 3.1615269238 1 -1 0
124 73 1 0.0 11.2963478235 1.0353412888 3.1389388855 0 -1 0
125 73 1 0.0 6.1755407326 1.162320993 5.6269495027 0 -1 0
126 97 1 0.0 6.702735824 25.4697380497 3.3487810198 -1 -1 0
127 97 1 0.0 8.5852101181 25.9942903065 3.2448187638 0 -2 0
128 73 1 0.0 10.0368753292 29.2498766685 3.0096315518 0 -2 0
129 82 1 0.0 11.7377905864 26.1560259757 3.0767823555 0 0 0
130 82 1 0.0 15.2598546459 26.9386265999 3.0069719085 0 0 0
131 82 1 0.0 14.3999818246 25.4184993299 3.9935975785 0 0 0
132 82 1 0.0 13.3153931248 28.1860109395 3.3291876969 0 0 0
133 55 1 0.0 16.7257131706 29.7037509937 3.2525506462 0 -1 0
134 69 1 0.0 20.9896233465 26.707595299 3.2673826613 -1 0 0
135 10 1 0.0 20.513000854 27.6036930779 7.4606830094 0 -1 0
136 69 1 0.0 19.8527297855 22.6022103024 3.0263944736 0 -1 0
137 55 1 0.0 20.0553642725 29.2375683494 4.4666849234 0 -1 0
138 69 1 0.0 21.740530887 24.3093060605 3.0319586009 0 0 0
139 69 1 0.0 18.3077748792 25.5514879105 3.5374118841 1 -1 0
140 69 1 0.0 21.0127704894 25.2228242582 5.9199254861 1 -1 0
141 91 1 0.0 24.0593354657 28.2570447225 3.0722993603 0 0 0
142 19 1 0.0 24.0432860051 26.0074356227 5.9038444167 -1 0 0
143 10 1 0.0 22.5935053128 29.2822997396 6.2342732723 0 -1 0
144 85 1 0.0 29.4586494829 26.4930456772 3.5676190305 0 0 0
145 85 1 0.0 0.3774667559 28.9459956987 2.9930959261 1 0 0
146 19 1 0.0 25.3285622994 25.3208463191 3.3832530673 -1 0 0
147 91 1 0.0 26.3072422333 28.2857583307 3.3966583917 0 0 0
148 85 1 0.0 0.4307805543 28.7682806478 4.299850176 1 0 0
149 85 1 0.0 0.7287755467 26.2643312288 6.6820515666 1 1 0
150 7 1 0.0 2.9682744511 4.7779309713 5.8407508524 -1 0 0
151 7 1 0.0 0.0187332254 3.42188669 8.7948281144 0 1 0
152 105 1 0.0 4.029287561 4.8685463491 14.935004096 -1 0 0
153 7 1 0.0 3.0476220484 4.7228585501 11.7169803905 -1 1 0
154 7 1 0.0 5.1619325697 4.0284697192 9.3005661939 0 1 0
155 7 1 0.0 0.4486203708 4.009847528 11.4044381095 -1 1 0
156 114 1 0.0 29.4744257578 29.7134549733 7.7318242478 0 0 0
157 25 1 0.0 9.6480227479 1.8861879841 5.9993836712 0 1 0
158 25 1 0.0 13.1736101488 1.2002323594 12.2437457764 0 1 0
159 25 1 0.0 10.0829262705 3.0727304148 10.6596535637 0 1 0
160 97 1 0.0 7.5756020342 1.0541113482 8.4963812297 0 -1 0
161 40 1 0.0 7.5363508879 4.9947982757 13.1277935305 -1 1 0
162 10 1 0.0 17.1434436902 4.155879741 6.8887602393 -1 0 0
163 21 1 0.0 12.3837923214 3.6486107927 5.0064568326 -1 1 0
164 21 1 0.0 13.1242151746 3.9620410065 8.0473866872 -1 1 0
165 32 1 0.0 18.4487734394 6.2638397845 11.2596610901 -1 0 0
166 32 1 0.0 15.9869249058 3.2868423136 10.0369763172 -1 0 0
167 48 1 0.0 14.3703012785 3.5889411702 14.7521281057 1 1 0
168 10 1 0.0 19.0250254933 4.7991512879 7.9250108863 -1 0 0
169 32 1 0.0 21.1947873964 6.0263298103 10.9202243767 0 0 0
170 32 1 0.0 21.1169968982 3.3249618427 10.0660187902 0 0 0
171 45 1 0.0 23.8965258825 3.87640208 8.7979244737 0 0 0
172 59 1 0.0 23.8967268749 1.8763050907 12.7824944187 1 0 0
173 114 1 0.0 27.0702626219 3.8655910719 8.9001423597 -1 1 0
174 105 1 0.0 27.9603164012 4.9409922566 12.9260658164 -1 0 0
175 105 1 0.0 29.8077320393 0.8416830713 11.571282331 -1 0 0
176 114 1 0.0 27.0346283321 1.9945567294 11.3967884152 -1 1 0
177 20 1 0.0 0.1202522069 9.8192253609 7.725290716 0 1 0
178 20 1 0.0 3.4218505954 6.9032122357 8.9354757385 -1 1 0
179 61 1 0.0 3.8558850286 12.1008121968 6.4854256814 0 0 0
180 106 1 0.0 0.9138459621 9.9868985566 14.9980229343 0 0 0
181 106 1 0.0 0.9454258871 7.6109846347 11.4955531956 1 0 0
182 20 1 0.0 5.3079870143 9.7570390436 8.0900280173 0 1 0
183 106 1 0.0 4.6978127077 7.7387288788 12.0988247659 0 0 0
184 61 1 0.0 2.7838469711 10.0889412934 10.330732962 0 0 0
185 75 1 0.0 8.2291788084 10.8934980691 7.0371716829 2 -1 0
186 93 1 0.0 9.2677723081 5.2960869904 8.3875623884 0 0 0
187 93 1 0.0 7.4510008263 7.2719774874 8.7215891015 0 0 0
188 93 1 0.0 8.891182218 7.8898263343 12.3456223506 0 0 0
189 93 1 0.0 6.7899427993 10.0237083964 10.7318732774 0 0 0
190 93 1 0.0 10.5577696069 6.6434189147 11.1929151714 0 1 0
191 93 1 0.0 9.2027789917 11.7789593793 12.8105708253 0 1 0
192 75 1 0.0 10.854053825 9.997581246 9.49166016 0 -1 0
193 75 1 0.0 13.6081567087 11.1662721722 9.6030391289 0 -1 0
194 75 1 0.0 15.3514121337 9.6152401769 7.5677810748 1 -1 0
195 21 1 0.0 15.578279706 6.5241892278 8.9732246529 -2 1 0
196 58 1 0.0 17.5097766304 11.973263946 8.961263119 -1 0 0
197 96 1 0.0 13.7806602731 7.9144823555 11.2387225479 1 1 0
198 58 1 0.0 17.9641135803 9.3643305237 9.9453427169 -1 0 0
199 96 1 0.0 13.8868860134 5.8172965273 12.6653721967 1 1 0
200 45 1 0.0 24.5834479308 6.2796381006 11.1572594258 0 0 0
201 58 1 0.0 20.9797648033 7.7940210509 8.4164586947 -1 0 0
202 45 1 0.0 23.532074035 11.3532427009 7.0234755478 0 1 0
203 45 1 0.0 20.5373162399 9.8570638608 5.7449372848 0 1 0
204 81 1 0.0 20.882353768 10.6399417509 9.7231152565 0 0 0
205 58 1 0.0 20.4123340623 13.3523353713 6.9295778179 -1 0 0
206 81 1 0.0 19.9605678205 9.0838780677 12.2891014882 0 1 0
207 45 1 0.0 24.2301959667 9.7801363272 10.2132257022 0 0 0
208 14 1 0.0 29.4272399979 6.4049022461 8.5583817739 -1 0 0
209 14 1 0.0 25.9422760268 7.6679449434 8.1714343641 -1 1 0
210 99 1 0.0 26.1403182793 12.260976866 9.3581660195 -2 0 0
211 99 1 0.0 25.5384352676 14.3304628825 5.8592924814 0 -1 0
212 106 1 0.0 29.4524751971 10.4767695487 11.3169030823 -1 0 0
213 56 1 0.0 3.6453519022 16.1985061673 7.3831844601 0 0 0
214 56 1 0.0 1.9767761328 17.7679326444 9.1273238165 1 0 0
215 37 1 0.0 1.6414753245 14.7423180125 9.4948660895 1 0 0
216 61 1 0.0 6.1882856273 14.0642418667 5.9992988548 0 0 0
217 20 1 0.0 4.5834598676 13.4444121334 9.1814300619 0 1 0
218 129 1 0.0 7.3688184087 18.2476416086 12.240881464 1 -1 0
219 56 1 0.0 1.278976995 13.6255515029 5.8694026175 0 0 0
220 61 1 0.0 6.1389911893 12.3876987721 12.7800139798 0 0 0
221 37 1 0.0 28.9298651049 13.6742151531 9.0224677526 0 0 0
222 29 1 0.0 11.6348192318 18.4010880288 4.9539170078 0 -1 0
223 75 1 0.0 9.9210073872 13.1566708489 8.5490047101 2 -1 0
224 26 1 0.0 7.9111751468 19.6778714935 9.1570728356 0 -1 0
225 61 1 0.0 7.4374680538 15.0428109545 11.5865116288 0 0 0
226 61 1 0.0 7.3584160924 16.387736123 8.8291516295 0 -1 0
227 87 1 0.0 9.6435224063 16.7938983375 10.5584845683 0 1 0
228 87 1 0.0 12.1885324711 19.3944876874 12.4894582636 0 0 0
229 61 1 0.0 3.6328093114 10.6612218963 11.7124465254 0 1 0
230 5 1 0.0 14.5333759552 13.4891939065 7.651179418 -1 0 0
231 87 1 0.0 10.2789451825 16.3886933915 6.8298252864 0 -1 0
232 87 1 0.0 14.2618952825 16.9597767654 8.968103036 -1 0 0
233 87 1 0.0 13.1555744994 14.3090086487 10.3050980356 0 -1 0
234 87 1 0.0 12.735427764 20.3281460434 11.1121568315 -1 0 0
235 42 1 0.0 16.0683251263 18.0709811734 12.1060345866 0 0 0
236 62 1 0.0 20.2086625349 16.9141285088 6.9951394411 -1 0 0
237 112 1 0.0 19.1870258638 14.8689373828 10.675134671 -1 -1 0
238 99 1 0.0 23.3911961351 14.1718495209 8.255887861 0 -1 0
239 112 1 0.0 20.9831886883 19.0498687733 10.2255859839 -1 0 0
240 112 1 0.0 21.4645157484 18.482321166 13.3400591247 -1 -1 0
241 42 1 0.0 14.5875904118 15.4894707867 13.5022078246 0 0 0
242 56 1 0.0 28.7210834536 14.7018146271 6.203102411 -1 0 0
243 37 1 0.0 26.1751658311 15.5562319227 8.9090051321 0 0 0
244 99 1 0.0 25.0163275753 12.6058897271 11.7707122906 -2 -1 0
245 99 1 0.0 25.5274349936 16.4616120591 5.7511561478 -1 -1 0
246 99 1 0.0 24.4577317323 15.5393810677 11.9586743164 -1 -1 0
247 99 1 0.0 23.7030351691 17.2168316231 8.939517301 -1 -1 0
248 56 1 0.0 4.8268058536 18.9246292985 8.1884132223 1 0 0
249 129 1 0.0 9.1631219319 16.2856093336 14.0566502004 0 -1 0
250 56 1 0.0 2.3278032605 20.5841748466 7.3453073251 0 -1 0
251 101 1 0.0 2.3474481636 24.1935605517 11.2930710832 0 -1 0
252 101 1 0.0 1.1549538308 21.5868762267 10.5309661613 0 -1 0
253 79 1 0.0 4.277255256 21.4006835688 10.4914296063 1 0 0
254 79 1 0.0 4.4005827919 22.5863528275 13.1258521189 1 0 0
255 79 1 0.0 3.1758771923 23.3309281984 8.0716191204 1 0 0
256 26 1 0.0 10.240518783 22.1798634461 9.5502586223 0 -1 0
257 26 1 0.0 10.8738863024 24.3423004878 8.0194384614 0 0 0
258 26 1 0.0 11.8332924484 19.4726369493 8.0934875163 0 0 0
259 100 1 0.0 13.7929182874 23.5176528695 7.7391761182 0 -1 0
260 100 1 0.0 15.0627904143 22.1245646942 10.1716963627 0 -1 0
261 42 1 0.0 16.5936061628 20.377768915 14.0078181952 0 -1 0
262 82 1 0.0 17.2079861257 27.422053736 5.7496497523 0 0 0
263 100 1 0.0 16.6856813209 19.3895002776 8.4697397008 -1 -1 0
264 100 1 0.0 18.097887535 22.548778855 10.4580467211 -1 -1 0
265 42 1 0.0 13.997429687 21.3133114449 14.6123425485 -1 0 0
266 62 1 0.0 23.3643004814 19.7073360261 6.4901177131 0 0 0
267 62 1 0.0 18.040925976 17.9781667349 5.7546170063 -1 0 0
268 112 1 0.0 17.2565937849 15.0369084036 11.3802762653 -1 0 0
269 112 1 0.0 19.1692821982 18.4806658992 9.8649367742 -1 0 0
270 46 1 0.0 20.4044214949 21.242045493 12.6186800868 -1 1 0
271 46 1 0.0 21.5382520726 22.1427347785 8.9333833284 -1 0 0
272 112 1 0.0 18.709583217 16.0629809427 14.1675314458 -1 0 0
273 19 1 0.0 26.093312355 20.8401808589 6.4130934868 -1 1 0
274 37 1 0.0 27.4874321919 18.3744512697 9.8928837796 0 1 0
275 88 1 0.0 29.6092431462 21.2005979719 6.2890115414 -1 0 0
276 101 1 0.0 27.8875923256 24.6089116236 7.7620508773 0 -1 0
277 46 1 0.0 24.0264264093 20.3353131554 10.3356199885 -1 0 0
278 46 1 0.0 23.92289185 20.9629876162 12.7632600342 0 0 0
279 56 1 0.0 28.2754810141 18.2827333489 6.7470995205 -1 0 0
280 101 1 0.0 27.5319146534 22.0884484562 9.1342218482 0 -1 0
281 19 1 0.0 24.6330440461 24.2635221732 7.4904539493 -1 0 0
282 7 1 0.0 5.0162417408 29.2506077576 8.7154401194 0 -1 0
283 79 1 0.0 6.8195138992 23.9550334287 8.2460141421 0 1 0
284 79 1 0.0 0.3810678868 26.1716694445 9.9993016429 1 1 0
285 114 1 0.0 27.6202544943 28.418274223 7.4556673047 0 0 0
286 7 1 0.0 2.0420823368 28.5826324573 9.6297082174 -1 -1 0
287 79 1 0.0 5.3097046322 26.9463413737 10.4545816205 1 2 0
288 97 1 0.0 10.5829789414 27.9897950961 5.9799509666 0 -2 0
289 70 1 0.0 13.3287505929 24.3788959091 11.3007423877 -1 -1 0
290 25 1 0.0 7.4776424951 1.8572630427 12.2853566518 0 1 0
291 97 1 0.0 8.2344081273 26.7870421942 8.1940035427 -1 -1 0
292 104 1 0.0 10.8106168427 25.8466093716 11.0627987888 -1 -1 0
293 104 1 0.0 12.6445401823 28.7248204735 14.1415286875 0 -1 0
294 82 1 0.0 13.1005798457 26.6403233093 6.521777323 0 0 0
295 25 1 0.0 10.8159203098 29.3411797443 11.5474670021 0 0 0
296 100 1 0.0 16.1389666129 25.0368934868 9.7885890103 -1 -1 0
297 25 1 0.0 12.7520463712 28.6844285092 9.4488044751 0 0 0
298 82 1 0.0 15.1045824765 27.5911886154 7.9055504664 0 0 0
299 32 1 0.0 15.9837003263 0.2008653318 12.8026404245 0 0 0
300 70 1 0.0 16.5560023517 23.7954014884 12.8443203779 -1 1 0
301 46 1 0.0 19.5853433569 25.3241265577 9.9963548882 -1 0 0
302 32 1 0.0 17.9035284909 0.2040605138 10.2843313738 0 0 0
303 59 1 0.0 23.510014446 0.0975571651 9.1761444528 0 0 0
304 59 1 0.0 22.7701370784 26.2478676173 10.2004289522 0 0 0
305 59 1 0.0 20.7612587464 28.5611270385 11.0380103813 0 -1 0
306 59 1 0.0 20.4795705294 29.1010080787 13.6774662655 1 -1 0
307 85 1 0.0 29.212164791 25.48972333 3.417148427 0 0 0
308 114 1 0.0 25.8006325653 29.2601737323 6.1561184119 0 0 0
309 114 1 0.0 26.1610559683 28.8651723137 10.3741136373 -1 0 0
310 49 1 0.0 23.7152396614 27.4084141812 12.6707890801 -1 0 0
311 67 1 0.0 3.0246080963 3.9660817532 17.6996552993 1 1 0
312 105 1 0.0 1.3195600189 2.9752359194 14.2726280764 0 0 0
313 67 1 0.0 4.1394463959 5.5778911668 20.8941020279 1 1 0
314 4 1 0.0 6.991698698 3.4008610745 22.167420904 -1 0 0
315 105 1 0.0 29.5108122249 5.7528103248 13.6601672068 -1 0 0
316 111 1 0.0 2.1211428081 0.8378222481 16.6521357041 1 1 0
317 105 1 0.0 5.0813508195 2.8288282966 14.6650384106 0 0 0
318 40 1 0.0 9.8513511209 4.7120955444 16.3710647219 -1 0 0
319 40 1 0.0 9.5641860582 0.8841539031 15.7939689664 -1 0 0
320 40 1 0.0 5.9704900501 2.7976191825 17.9903732252 -1 0 0
321 40 1 0.0 7.665889568 5.7995809825 18.2231299667 -1 0 0
322 15 1 0.0 12.9459623345 4.5995734092 17.4141179213 0 1 0
323 48 1 0.0 12.2900152619 1.0442520098 16.7674441901 1 1 0
324 48 1 0.0 12.9785425144 1.89268178 20.100199847 1 1 0
325 40 1 0.0 6.8997641528 6.5611841678 14.9177048526 -1 1 0
326 4 1 0.0 8.4680756239 1.6925565952 19.2909867106 -1 0 0
327 32 1 0.0 17.6346250394 1.2678603791 14.6174215896 0 0 0
328 48 1 0.0 16.0650806575 6.7277512397 16.9808899553 1 1 0
329 15 1 0.0 16.2161820453 4.4699222159 19.6090538339 0 1 0
330 120 1 0.0 18.7803923046 1.5804855304 19.0462091929 -1 0 0
331 120 1 0.0 16.3872186649 2.7556088135 16.8939998867 -1 0 0
332 81 1 0.0 16.9857972099 5.2053804388 14.1921824817 0 1 0
333 81 1 0.0 18.5812304332 3.3543341637 12.6685828911 0 1 0
334 81 1 0.0 22.3371122359 4.3839024996 13.3735399506 0 0 0
335 137 1 0.0 20.2232637111 3.2015188547 16.0559642054 0 1 0
336 137 1 0.0 19.422305284 5.6402712528 16.5861220309 0 1 0
337 59 1 0.0 22.096827917 1.3577481727 14.8235499014 1 0 0
338 137 1 0.0 19.2981444253 6.1075155605 19.2091693086 1 1 0
339 137 1 0.0 23.8320985536 2.9359827442 16.4268784343 0 1 0
340 137 1 0.0 23.7529087951 1.5359110337 18.2884609068 0 1 0
341 111 1 0.0 26.7128599335 0.807527797 17.0737826121 0 0 0
342 117 1 0.0 26.5091513338 8.5889864531 12.4236580898 -1 0 0
343 117 1 0.0 25.0236349753 5.3416373967 14.3580051361 -1 -1 0
344 117 1 0.0 22.6862120892 6.1098630539 17.6954566844 -1 -1 0
345 67 1 0.0 28.4560514775 3.6302032707 16.3803254334 0 1 0
346 67 1 0.0 26.8413428834 6.1492249619 16.6881359336 0 1 0
347 111 1 0.0 27.249045017 1.414942247 19.0553868835 0 0 0
348 49 1 0.0 26.0694739729 29.3320027022 14.3153193349 -2 -1 0
349 67 1 0.0 2.3364294289 7.5199130428 15.5185183904 1 1 0
350 106 1 0.0 1.938157124 12.4409380503 14.1491621135 0 0 0
351 22 1 0.0 27.2075876927 12.0963535395 17.4622951515 -2 0 0
352 22 1 0.0 1.1129082945 9.3635145893 18.5086199945 -1 0 0
353 113 1 0.0 2.2572948391 12.0440300056 18.1217756018 -1 0 0
354 67 1 0.0 28.3179963842 8.7603747979 16.2104099259 0 1 0
355 22 1 0.0 1.0543385494 6.5771749583 18.4777627891 0 0 0
356 67 1 0.0 3.7752744371 9.090377353 20.0734723962 1 1 0
357 48 1 0.0 9.833740617 7.8666266452 18.7446862341 0 1 0
358 106 1 0.0 5.556870486 9.6616158461 14.0972497636 0 1 0
359 93 1 0.0 11.2543940262 9.531851617 13.8828717899 0 1 0
360 113 1 0.0 6.1948607627 8.5078670169 17.7666651846 0 0 0
361 113 1 0.0 7.7767596387 10.2603786869 20.1463070221 0 0 0
362 48 1 0.0 8.6403473699 9.1284780449 15.9827786338 0 1 0
363 96 1 0.0 11.4326297635 10.4980263223 16.7412013312 0 1 0
364 48 1 0.0 14.5179545406 8.7709618522 19.7016055213 1 0 0
365 96 1 0.0 14.7328432497 10.0616553526 13.3123690426 -1 1 0
366 96 1 0.0 12.3626772051 7.4539549262 16.103348957 0 1 0
367 96 1 0.0 11.5119769941 12.597441338 14.6312620704 0 1 0
368 98 1 0.0 17.4296747022 11.9668862016 12.8195205118 0 0 0
369 96 1 0.0 14.1075112111 12.3179679995 12.7421870284 0 1 0
370 98 1 0.0 14.6374846923 11.6842301359 16.030697065 -1 0 0
371 81 1 0.0 17.3322257858 7.5987650846 13.875210554 0 1 0
372 98 1 0.0 19.9673043828 8.9539852341 16.120233571 0 1 0
373 81 1 0.0 22.2977515224 7.621816277 13.7997001482 0 0 0
374 80 1 0.0 23.3077967437 10.7030217037 13.9444362504 1 0 0
375 98 1 0.0 21.612352643 11.1358136174 16.3053061644 0 1 0
376 117 1 0.0 25.454352381 9.0108271913 15.9708707796 -1 1 0
377 117 1 0.0 27.3747431595 11.4064180398 14.5531476153 -1 1 0
378 117 1 0.0 24.5076413092 10.6103668143 17.2255147101 -1 0 0
379 117 1 0.0 22.4969320107 9.565949131 18.5737076997 -1 -1 0
380 106 1 0.0 0.6591126777 12.8143267108 12.046851498 0 0 0
381 80 1 0.0 24.2971035387 14.4288599041 18.8728669209 1 0 0
382 126 1 0.0 28.0196602271 18.5668321026 17.4680316682 0 0 0
383 126 1 0.0 28.7666842116 15.5043262432 14.870187086 -1 0 0
384 129 1 0.0 3.9128605313 18.2684120889 11.9243297264 1 -1 0
385 129 1 0.0 2.0226506829 16.1407115215 15.0718517294 1 -1 0
386 113 1 0.0 2.8851237386 12.7416510108 21.2074665426 -1 0 0
387 17 1 0.0 3.3389362712 16.6916633529 20.2084769293 0 1 0
388 113 1 0.0 4.0106566959 12.9657890593 16.469768807 -1 -1 0
389 129 1 0.0 4.6346752518 16.0662684217 16.3285614105 0 0 0
390 113 1 0.0 5.6319678977 14.7042445208 19.3779547151 -2 -1 0
391 116 1 0.0 8.9020994709 13.203131371 18.3926558268 -1 0 0
392 116 1 0.0 7.603970454 18.0799711396 18.6076875778 -1 0 0
393 87 1 0.0 11.192128353 14.4908426173 12.0461806755 0 -1 0
394 116 1 0.0 9.970806469 16.1768739664 17.3402677326 -1 0 0
395 80 1 0.0 19.2271471367 13.1753101547 15.5218084183 -1 0 0
396 60 1 0.0 12.0631453727 14.3482222311 18.1433759658 0 0 0
397 112 1 0.0 20.6487974919 15.6893987398 12.8287271485 -1 -1 0
398 98 1 0.0 20.6923381822 12.4796727756 12.584103303 0 0 0
399 80 1 0.0 22.6919043677 16.0997690784 15.8694880868 -1 -1 0
400 1 1 0.0 16.7094337037 15.0130366069 16.115604505 -1 -1 0
401 1 1 0.0 20.9480813631 14.3548347091 17.9557175457 0 -2 0
402 8 1 0.0 24.9665578412 18.5090086106 19.3308757222 -1 0 0
403 37 1 0.0 27.6794549711 13.8463657804 12.7749218555 -1 0 0
404 126 1 0.0 27.6794110189 16.4219320569 19.5937645491 0 0 0
405 126 1 0.0 29.7289612476 13.5867449925 16.5150177796 -1 -1 0
406 80 1 0.0 25.031975038 13.6950189034 14.9294580923 1 0 0
407 37 1 0.0 0.6772331752 15.9125919255 12.1693806994 1 0 0
408 8 1 0.0 26.4297073116 15.2188694151 16.8664026579 -1 0 0
409 8 1 0.0 24.4850038457 17.968894942 14.634194506 -1 0 0
410 126 1 0.0 2.9336736381 19.2598208183 15.1406729503 0 -1 0
411 101 1 0.0 1.5021238791 24.0909136704 13.1238996964 0 -1 0
412 3 1 0.0 29.3472378284 24.0819462323 15.9103838689 -2 0 0
413 79 1 0.0 4.5965248381 26.0442443682 13.18081884 1 0 0
414 3 1 0.0 2.1767377678 22.6032219278 17.8031419457 -1 -1 0
415 129 1 0.0 5.992096685 19.634996705 15.3048553272 1 -1 0
416 17 1 0.0 3.4988282755 20.1507996054 19.8968003499 -1 1 0
417 70 1 0.0 10.7021986984 22.3580426505 12.9175292877 -1 0 0
418 129 1 0.0 6.8355963446 14.7623594198 16.4319795497 0 -1 0
419 74 1 0.0 7.8492944509 21.5169699774 13.7775498893 0 0 0
420 74 1 0.0 9.2093993072 19.7540056611 15.4280912158 0 -1 0
421 74 1 0.0 5.343807663 23.2499298959 16.114437 1 0 0
422 104 1 0.0 7.2512025106 24.5831281309 12.2016301703 -1 -1 0
423 74 1 0.0 8.835688842 20.8975697151 18.3427776789 0 -1 0
424 74 1 0.0 9.5318244363 23.8446056864 17.9070378232 0 0 0
425 42 1 0.0 12.3668485825 19.8811851436 15.5947832292 -1 0 0
426 70 1 0.0 12.3106393557 23.83293518 15.5356738304 -1 1 0
427 70 1 0.0 15.7428042109 24.8973268792 15.1958329501 -1 1 0
428 63 1 0.0 15.8200958296 22.2884895233 17.1148482958 0 1 0
429 63 1 0.0 16.3124780825 20.1088058392 19.4416200781 0 0 0
430 42 1 0.0 17.0668282691 18.3136150385 16.1491811268 0 -1 0
431 86 1 0.0 12.3841990255 21.9833118861 18.3704404017 0 0 0
432 42 1 0.0 12.751124903 15.8715711868 14.1151907409 0 0 0
433 46 1 0.0 21.126133992 23.2450821421 14.3920559823 0 1 0
434 63 1 0.0 21.3505215534 20.6795314654 15.9812826452 0 -1 0
435 63 1 0.0 20.2394233877 17.946986214 17.0364995642 0 -1 0
436 63 1 0.0 18.3819374146 22.28855462 15.4660565482 0 1 0
437 8 1 0.0 24.4919053183 20.7694185935 16.9559860967 -1 0 0
438 37 1 0.0 29.6384656417 18.4826347131 10.7937128989 0 0 0
439 8 1 0.0 27.7358781667 18.0737183647 13.5387363775 0 0 0
440 101 1 0.0 0.6921035924 19.8761868529 13.3668153938 -1 -1 0
441 101 1 0.0 27.7089220857 21.2278881188 11.892166067 -1 0 0
442 8 1 0.0 29.3763556456 20.9915614118 15.7423147868 -1 0 0
443 8 1 0.0 27.7209633942 21.6694887604 18.2454932003 -1 0 0
444 105 1 0.0 4.1493948468 0.5898959821 12.876499265 0 0 0
445 3 1 0.0 3.362913081 25.5112645272 15.9042288377 1 -1 0
446 3 1 0.0 3.0069053705 27.789437164 19.2354378505 0 0 0
447 111 1 0.0 1.2248407109 27.8979815727 14.3031582104 0 0 0
448 104 1 0.0 8.726853694 28.6145067711 13.5825636342 1 -1 0
449 40 1 0.0 6.4929420296 29.9959556682 17.7685933326 -1 -1 0
450 104 1 0.0 6.3049278946 27.6368245807 14.9478239102 1 -1 0
451 104 1 0.0 10.4679009799 27.5354954019 17.4685212578 0 -1 0
452 104 1 0.0 7.1766045416 25.9784785715 16.4268129967 0 -1 0
453 74 1 0.0 9.8105429739 25.5088415078 14.0582147484 0 0 0
454 4 1 0.0 5.2934682469 0.0228397505 20.6751136964 -1 1 0
455 120 1 0.0 15.577333085 29.0833906938 15.6706333486 -2 -1 0
456 63 1 0.0 17.6375964025 24.6349842821 18.2588848463 1 -1 0
457 70 1 0.0 14.7030920558 26.6951393958 17.6572875456 -1 -1 0
458 70 1 0.0 14.7837552117 26.6499144529 12.7452982721 0 -1 0
459 120 1 0.0 15.5179495324 0.0430587028 19.4747985536 -1 0 0
460 120 1 0.0 17.493592217 27.8048145593 15.2202073167 -1 -1 0
461 120 1 0.0 18.0030141036 28.7815600122 21.4111686509 -1 -1 0
462 46 1 0.0 20.8093224521 26.1015210806 13.2684228298 -1 0 0
463 120 1 0.0 19.8845330896 29.233983049 17.0409062569 -1 -1 0
464 63 1 0.0 20.5191868639 23.9424696575 17.5592888582 0 -1 0
465 49 1 0.0 24.6679965665 24.1983377775 15.9230323631 -1 -1 0
466 49 1 0.0 23.209435304 27.1894870835 15.1990367542 -1 -1 0
467 59 1 0.0 24.8390919254 24.3194529179 12.4228428222 0 -1 0
468 3 1 0.0 0.3775371923 27.3816759574 17.5155918636 0 0 0
469 49 1 0.0 27.0194177111 22.8644549594 14.0504544889 -1 -1 0
470 49 1 0.0 28.278071049 24.6887446504 12.1858588614 -1 -1 0
471 49 1 0.0 28.4407127836 27.5402629335 12.2129670521 -1 -1 0
472 111 1 0.0 27.6452770467 26.9744527849 15.3355925059 -1 0 0
473 57 1 0.0 25.2962620114 26.6335259109 17.6441848851 0 0 0
474 57 1 0.0 28.7316692087 25.41262922 20.0562159697 -1 -1 0
475 111 1 0.0 28.9940699712 0.5375688127 15.6107213465 0 0 0
476 111 1 0.0 0.5979784116 1.3762382149 19.3762345923 1 1 0
477 2 1 0.0 4.6546825442 1.5243771356 23.9869869906 -1 0 0
478 2 1 0.0 3.4831331305 2.1629775264 26.7135053403 -1 0 0
479 2 1 0.0 0.6334338909 4.804384924 24.5684593543 0 0 0
480 2 1 0.0 2.4485828721 2.5273729296 22.1852500768 0 0 0
481 2 1 0.0 5.0775625147 5.2818873437 23.7552077296 0 0 0
482 4 1 0.0 10.5034399759 0.3850593754 19.5247693166 0 0 0
483 23 1 0.0 11.5973340671 4.8323451517 25.6899849131 0 1 0
484 23 1 0.0 8.617787962 5.6352532857 23.9836062706 0 1 0
485 15 1 0.0 9.7861705596 4.462042695 20.4942845322 0 1 0
486 23 1 0.0 10.9415123555 7.1521016043 22.2946316419 0 1 0
487 24 1 0.0 6.4936056026 0.7871221559 26.9535590462 0 1 0
488 15 1 0.0 11.2913047827 3.1911473036 22.9871748584 -1 1 0