# LAMMPS data file written by OVITO Pro 3.7.4
980 atoms
490 bonds

1 atom types
1 bond types
1 angle types
1 dihedral types

0.0 30.0 xlo xhi
0.0 30.0 ylo yhi
0.0 45.0 zlo zhi

Atoms  # full

1 10 1 0.0 4.6948517579 1.4055360979 8.9523136536 1 1 0
2 112 1 0.0 2.2965729031 4.5634296401 5.6162247235 1 0 0
3 249 1 0.0 2.1651598829 2.2464634493 3.3613392001 0 0 0
4 249 1 0.0 2.8529904879 0.9290963436 3.1240789312 0 0 0
5 73 1 0.0 7.174367882 28.3509392128 8.3990330618 2 0 0
6 226 1 0.0 5.4892796152 2.9127713442 3.709977911 1 0 0
7 232 1 0.0 0.7203223984 28.6457575164 3.583095694 2 0 0
8 10 1 0.0 3.8353012338 28.952028092 10.1467841782 1 0 0
9 353 1 0.0 4.8502842184 0.8185989485 5.9565408326 1 1 0
10 353 1 0.0 7.8369708795 0.9297583783 3.0193898027 1 1 0
11 209 1 0.0 8.8755380496 4.7480276205 3.0858289772 1 1 0
12 29 1 0.0 16.5084626994 28.5410522276 3.2114102183 1 0 0
13 209 1 0.0 8.023083785 6.2611493907 4.6519699372 1 1 0
14 399 1 0.0 16.3205462402 1.6258414547 2.9871239781 1 2 0
15 404 1 0.0 10.5241108545 0.7625265683 6.0259096608 2 1 0
16 334 1 0.0 13.0821733614 1.5641418309 3.0612843855 2 1 0
17 228 1 0.0 14.129011688 1.1661754747 5.7000361351 0 1 0
18 228 1 0.0 17.6874402368 2.2220409352 5.6629893234 0 1 0
19 146 1 0.0 17.3369255249 5.0478948623 3.2656730236 0 0 0
20 146 1 0.0 19.8048656022 2.514736443 3.1871825374 0 0 0
21 343 1 0.0 23.5859526536 3.8181858964 3.2517217814 1 0 0
22 91 1 0.0 20.952253131 0.5479002397 6.02761694 0 1 0
23 91 1 0.0 19.8874318917 3.1905768994 7.3016137284 1 1 0
24 409 1 0.0 23.5699593937 7.355868666 7.195467836 0 2 0
25 447 1 0.0 26.5324894429 4.82704321 3.1979672344 1 1 0
26 185 1 0.0 23.9692206764 7.1841359916 3.4838652149 0 1 0
27 447 1 0.0 29.0627880923 3.0987197354 2.9303633556 1 1 0
28 364 1 0.0 26.3701114834 1.8372353816 3.6138060632 0 1 0
29 93 1 0.0 26.8218424643 4.8436208748 6.1926610545 1 0 0
30 409 1 0.0 22.3728766286 5.3517013546 6.7591615413 0 2 0
31 226 1 0.0 4.8405017473 4.3261388151 3.0783728043 1 0 0
32 254 1 0.0 2.4497924433 6.2473748815 2.9440653382 1 -1 0
33 254 1 0.0 3.1780055824 9.3746376363 3.3266304862 1 -1 0
34 439 1 0.0 5.56356087 5.3269129846 5.8167388039 3 1 0
35 458 1 0.0 29.5685543381 6.2045901769 3.552023258 0 0 0
36 250 1 0.0 5.2789361193 8.8858209106 6.3476059054 0 2 0
37 250 1 0.0 5.4203899713 7.4798680236 3.6142006662 0 2 0
38 451 1 0.0 6.6104510803 10.4081432928 3.3850335174 0 0 0
39 365 1 0.0 11.8773821965 5.4554494035 3.6652240623 2 0 0
40 246 1 0.0 10.1797988074 10.6764360857 3.6244372316 1 0 0
41 365 1 0.0 10.6160472535 7.7203130725 3.3531079348 2 0 0
42 334 1 0.0 11.2724134545 2.5259046824 3.3207675678 2 1 0
43 154 1 0.0 14.6071360208 7.8895868925 2.8413507196 1 0 0
44 154 1 0.0 15.9509479713 7.209916861 4.7136448742 1 -1 0
45 60 1 0.0 12.7240794442 10.8696055836 6.0293142488 0 0 0
46 410 1 0.0 17.2996696212 5.4954867341 7.1564382532 2 0 0
47 185 1 0.0 21.0336247347 9.2311397734 3.1092299927 0 1 0
48 102 1 0.0 20.4489579046 5.8975467519 3.5618498262 1 1 0
49 102 1 0.0 21.3637868786 5.7340856241 3.1894876858 1 2 0
50 485 1 0.0 19.4957989648 12.6303659043 2.9982816767 0 1 0
51 485 1 0.0 21.9870007387 12.4544231452 3.0280529171 1 1 0
52 100 1 0.0 24.609724629 10.2170809988 3.5996290705 1 0 0
53 100 1 0.0 26.3633327312 8.5859645747 5.7622858469 1 0 0
54 458 1 0.0 28.2932366359 8.1018058833 3.2755416947 -1 0 0
55 356 1 0.0 0.7468335562 11.3020439417 3.0461036921 2 0 0
56 123 1 0.0 29.0190291773 9.2908466698 7.6354523878 0 2 0
57 356 1 0.0 0.5469423286 12.7335643202 3.5196830005 1 0 0
58 346 1 0.0 0.2500762348 22.4623672311 3.3969157255 2 0 0
59 346 1 0.0 0.2069915654 20.2088167468 3.4523105115 2 0 0
60 317 1 0.0 28.7040252312 15.2666608383 5.2729829939 0 0 0
61 147 1 0.0 2.9046965667 17.9780948058 3.3310522252 1 -1 0
62 147 1 0.0 4.8530210428 18.2355557703 3.0783769638 1 -1 0
63 246 1 0.0 8.7850639439 13.1579203699 3.2436035925 1 0 0
64 283 1 0.0 6.8717568608 15.9366748462 2.9795268712 1 0 0
65 283 1 0.0 7.8839617978 19.2428294111 3.203524614 1 0 0
66 489 1 0.0 10.9246674943 17.092354282 4.6434169467 2 0 0
67 451 1 0.0 4.3306115064 13.0494079889 3.8128970862 0 0 0
68 425 1 0.0 11.1293394591 19.9881232008 3.0057949278 1 0 0
69 259 1 0.0 18.1399529952 9.5920707332 3.3223583247 0 0 0
70 434 1 0.0 11.9303180469 13.4636051742 4.2990116226 3 0 0
71 434 1 0.0 13.2489365539 13.0238456667 3.8264016051 3 0 0
72 489 1 0.0 14.4243703723 14.7225820633 6.1845359873 2 0 0
73 363 1 0.0 14.6120570135 17.9360523628 6.1859045897 1 0 0
74 131 1 0.0 13.4052171745 16.3195085337 2.9249449452 0 0 0
75 363 1 0.0 16.6550910118 15.4770422375 3.0197855072 1 0 0
76 415 1 0.0 18.8095021837 14.9852173817 5.2708433858 1 1 0
77 217 1 0.0 23.7041104243 18.732001148 3.0599597991 2 1 0
78 263 1 0.0 21.4852951218 16.1777828086 6.4429706392 2 -1 0
79 263 1 0.0 20.9925677714 15.3638195012 2.7790162941 1 0 0
80 217 1 0.0 22.7507120514 18.7699970082 5.8217881322 2 1 0
81 20 1 0.0 27.6078745087 12.1822666352 3.023111607 -1 0 0
82 272 1 0.0 26.7207002534 16.0292225343 2.8392831917 1 -1 0
83 272 1 0.0 25.0161876936 15.0940926335 3.4958700416 1 -1 0
84 20 1 0.0 27.5347894833 12.4600296249 4.8136628125 -1 0 0
85 389 1 0.0 3.5101845885 21.7823881837 3.5045883248 2 0 0
86 266 1 0.0 5.1798132024 22.5031461969 6.0327819305 1 -1 0
87 21 1 0.0 1.457682758 19.2489579384 6.4083365334 0 0 0
88 233 1 0.0 5.875471998 17.4972807668 6.9568402527 0 1 0
89 425 1 0.0 13.4220449359 19.3616889883 3.2022867809 1 0 0
90 236 1 0.0 6.7307603554 22.91910496 2.9254828271 0 1 0
91 159 1 0.0 8.0344220578 23.4604302908 5.7672324368 2 1 0
92 159 1 0.0 8.5517572957 26.1230337716 3.1067496775 2 0 0
93 236 1 0.0 9.0767662122 22.7092626985 2.7842322717 0 1 0
94 370 1 0.0 13.3285538282 23.7142791299 6.9582183412 2 1 0
95 47 1 0.0 12.9366207745 20.7278777695 6.092652799 -1 2 0
96 131 1 0.0 16.38705106 18.8425251048 3.4198558183 0 0 0
97 166 1 0.0 17.7175002126 19.7443108643 5.9860961012 1 -1 0
98 200 1 0.0 13.9581040779 22.4498047503 3.4803179962 0 0 0
99 264 1 0.0 15.2276019199 23.1963964337 9.6790694987 1 -1 0
100 257 1 0.0 26.388295054 22.9913582998 3.8005419053 2 0 0
101 325 1 0.0 19.6181336321 18.4343358563 3.2541019401 0 -1 0
102 325 1 0.0 19.4242411928 21.1948198696 3.0972745603 0 -1 0
103 110 1 0.0 21.5840662411 23.3292889468 5.5097224831 1 1 0
104 200 1 0.0 16.1837084093 22.0916284616 3.719692278 0 0 0
105 19 1 0.0 23.62102543 21.8523221744 3.415740273 0 1 0
106 279 1 0.0 28.9192063243 25.9195433567 3.2556992953 1 1 0
107 19 1 0.0 24.6127329259 21.5896009294 6.6886821756 0 0 0
108 310 1 0.0 29.691916815 16.9551949614 3.1162106091 0 0 0
109 257 1 0.0 26.7477039646 20.7324270579 3.1947013676 3 0 0
110 310 1 0.0 26.3574494441 18.6119467397 5.5184877249 0 0 0
111 31 1 0.0 4.7761987888 28.688337659 2.839865992 1 -1 0
112 31 1 0.0 6.1163658755 28.0722730126 3.7042872481 1 -1 0
113 371 1 0.0 4.8299632846 26.1199679797 7.9530647045 2 1 0
114 389 1 0.0 4.9701589408 25.2740179066 3.1392584647 1 0 0
115 232 1 0.0 2.1359529657 26.7978312441 4.3588386146 1 0 0
116 165 1 0.0 27.1272199426 28.5681855966 3.0001401189 1 -1 0
117 116 1 0.0 0.0670923686 25.7521226703 7.1504414261 3 -1 0
118 332 1 0.0 12.3444107591 28.5125856567 3.3041251211 2 -1 0
119 332 1 0.0 10.7096607184 28.899676277 3.5513920335 2 -1 0
120 309 1 0.0 12.4228269053 25.0431525415 4.255470057 1 1 0
121 309 1 0.0 14.6105087715 25.3533864564 3.1831339115 1 1 0
122 404 1 0.0 11.8029606354 28.7692875552 7.6147665299 2 0 0
123 370 1 0.0 13.4239025849 25.8249118642 7.260636481 2 1 0
124 29 1 0.0 16.1844273183 28.449248087 5.4611722002 0 0 0
125 75 1 0.0 16.5822281511 26.071896366 8.2122290581 0 0 0
126 75 1 0.0 16.063552005 24.0953680803 6.1932304113 0 0 0
127 260 1 0.0 17.3735685328 0.0590086925 8.5968876068 1 -1 0
128 399 1 0.0 19.5518002483 29.0878395421 3.2390463389 1 1 0
129 139 1 0.0 17.7093632541 25.4547880385 3.2215780266 0 0 0
130 139 1 0.0 19.7797672152 27.5741975605 6.0201454032 0 0 0
131 343 1 0.0 23.0271602606 0.9110618853 3.0684669537 1 0 0
132 210 1 0.0 21.8949224189 26.3948553777 9.1782346499 2 -1 0
133 260 1 0.0 19.533141661 27.784852194 10.8611664166 1 -2 0
134 384 1 0.0 25.4172548082 25.9852480471 3.7217678152 2 -1 0
135 331 1 0.0 20.9763472974 25.7972920585 3.0802389616 2 0 0
136 331 1 0.0 22.5578965179 26.5315679798 6.1407338182 2 0 0
137 384 1 0.0 23.8388793523 24.7431876413 2.8269856317 2 0 0
138 165 1 0.0 24.7924219511 29.3125323132 4.8586918939 1 -1 0
139 364 1 0.0 28.7968286805 0.4840434657 4.7003081178 1 1 0
140 395 1 0.0 25.5750933845 28.7457770599 8.4213774415 0 0 0
141 182 1 0.0 2.2343423897 25.977264113 10.5920754526 0 -1 0
142 401 1 0.0 7.1931340591 3.5309411075 8.4816005618 2 0 0
143 52 1 0.0 4.620021638 3.8559500823 11.8434450426 1 1 0
144 73 1 0.0 5.6417074457 25.9473624341 11.1907640199 1 0 0
145 407 1 0.0 29.9256910269 2.1486686972 9.3346167191 1 0 0
146 407 1 0.0 1.5350725621 0.5994239011 8.3342308484 2 0 0
147 398 1 0.0 4.2602234896 0.6898259922 13.1969451607 2 1 0
148 182 1 0.0 2.0180184359 28.1260736446 7.177169 2 -1 0
149 118 1 0.0 7.5039253974 5.0554737276 12.5431606943 2 1 0
150 173 1 0.0 10.0313044782 6.6565755548 6.6234263037 2 1 0
151 401 1 0.0 8.4873810858 3.5486152387 5.9293265381 2 0 0
152 14 1 0.0 4.2313557671 0.5788230583 16.7574027 0 1 0
153 380 1 0.0 10.3954672738 6.0999622786 10.325793155 0 0 0
154 173 1 0.0 11.2262784071 7.900380748 7.7701299465 2 0 0
155 380 1 0.0 9.8570405163 2.6693412888 11.0288518282 0 0 0
156 305 1 0.0 11.8272718024 3.0693852363 7.3395036458 1 2 0
157 195 1 0.0 12.2211282978 27.2246220664 10.1981250266 0 -1 0
158 81 1 0.0 14.0060439903 7.1649174928 7.1458762899 1 1 0
159 305 1 0.0 14.741920823 3.8264503758 4.9875967166 1 2 0
160 81 1 0.0 15.2033487661 8.8208920405 7.4135433504 1 1 0
161 208 1 0.0 15.8022389561 6.3172587655 10.4174372365 3 0 0
162 208 1 0.0 14.2214400241 4.7024382311 8.9072192664 3 0 0
163 121 1 0.0 17.1211157851 3.0618312107 10.4752709253 0 0 0
164 410 1 0.0 19.2622346873 7.6160346318 6.0448796271 2 0 0
165 26 1 0.0 23.8974514029 2.6333425293 6.0483055611 -2 -1 0
166 402 1 0.0 18.5655981342 6.9879683168 12.2535997655 0 1 0
167 402 1 0.0 19.47330912 6.1178466976 9.2403451895 0 1 0
168 375 1 0.0 24.4156042692 26.626930758 11.0081266076 0 -1 0
169 26 1 0.0 23.0920144814 2.2886528018 8.0535956988 -1 -1 0
170 341 1 0.0 18.9214520414 0.2349874161 12.8019528995 1 -1 0
171 121 1 0.0 19.6204700738 2.5985976061 10.2324401017 0 0 0
172 375 1 0.0 24.3938212217 28.473295618 12.1112188224 0 0 0
173 93 1 0.0 27.2113261364 1.875475067 7.1467481435 1 0 0
174 427 1 0.0 26.5483113483 0.7842488286 10.8170529646 0 2 0
175 398 1 0.0 0.9001989682 28.9018990602 12.4415839558 2 0 0
176 427 1 0.0 27.1548936093 3.6072654786 9.8000048704 1 2 0
177 65 1 0.0 22.5395468928 5.9318263112 10.6226796204 0 0 0
178 64 1 0.0 28.1331599641 6.1380516061 11.6416763693 0 0 0
179 470 1 0.0 22.6127328354 1.2580455954 12.0853063439 1 1 0
180 439 1 0.0 5.0637707685 5.6892506309 7.3706617988 2 1 0
181 112 1 0.0 0.0196661436 3.7462105853 5.8797145626 1 0 0
182 392 1 0.0 1.4214953808 8.7269408562 6.1049400739 3 -1 0
183 114 1 0.0 3.6056675344 11.3424686528 6.4882735484 1 1 0
184 52 1 0.0 2.4329844073 4.350679928 8.9443871664 1 1 0
185 311 1 0.0 2.523755816 6.6028329649 11.3959927349 2 0 0
186 311 1 0.0 6.8900739134 7.7261411062 13.2611759537 2 0 0
187 83 1 0.0 5.2408842914 8.6328428742 10.4526410747 1 1 0
188 83 1 0.0 5.4923755707 6.7279516617 10.4810501168 1 1 0
189 324 1 0.0 5.357718862 11.3924253123 9.1341070143 2 0 0
190 324 1 0.0 6.2888507778 10.675549887 12.6378999357 2 0 0
191 388 1 0.0 8.8358307899 10.0195962298 6.4653102191 3 0 0
192 388 1 0.0 7.7280397246 7.7306297569 8.7504659502 2 0 0
193 452 1 0.0 15.8280163637 8.0599684082 13.2410990482 1 0 0
194 60 1 0.0 10.6618978126 12.2144942709 7.7422913397 0 0 0
195 435 1 0.0 18.1442500939 9.4099644121 10.4524689309 0 2 0
196 163 1 0.0 12.5403753045 13.7440415931 9.563256838 1 2 0
197 383 1 0.0 19.6365395849 11.6646278437 5.9272667726 1 0 0
198 452 1 0.0 13.1165657131 8.5226447482 10.0074760838 1 0 0
199 163 1 0.0 13.4424293745 16.8905511136 9.2114468498 1 2 0
200 472 1 0.0 15.5377603508 14.2554619388 11.3664759087 0 -1 0
201 383 1 0.0 17.0838612152 12.3497159465 5.1576117336 1 0 0
202 435 1 0.0 17.7124271672 11.3050445031 8.5718072421 0 2 0
203 84 1 0.0 26.2386321507 11.1985028858 8.2804642016 0 1 0
204 422 1 0.0 20.7974107038 9.5857538421 8.2911160762 1 0 0
205 422 1 0.0 22.3952328761 10.3844664373 6.4997817366 1 0 0
206 64 1 0.0 29.6767481459 7.1811789589 13.618458006 0 0 0
207 392 1 0.0 2.538503033 7.4015839562 7.7207615602 2 -1 0
208 123 1 0.0 29.3940606799 6.3052771367 8.0385807652 0 3 0
209 136 1 0.0 26.4009311713 6.9443286089 9.3385250411 -1 1 0
210 136 1 0.0 29.8451101564 9.2986405301 10.3761773 0 0 0
211 132 1 0.0 29.705946981 13.1318694659 8.6136270221 -1 0 0
212 114 1 0.0 2.4624172064 12.4777157518 6.0265113294 1 1 0
213 298 1 0.0 2.5961166893 11.8329822159 9.7018478281 1 1 0
214 408 1 0.0 2.186959019 10.2325085104 12.4202948793 3 0 0
215 92 1 0.0 2.5979020125 15.3987830837 5.0734697803 0 1 0
216 408 1 0.0 1.150881633 13.8923725609 11.6566441636 3 0 0
217 66 1 0.0 29.83472274 19.5888220985 9.7091294373 0 -1 0
218 292 1 0.0 3.5175783359 17.9870647337 13.1760951042 1 2 0
219 7 1 0.0 7.1928857206 13.3835765278 11.9856391284 2 1 0
220 267 1 0.0 10.8265448428 15.2430594343 6.9897778256 2 1 0
221 7 1 0.0 8.5146033147 10.804468251 9.8881423578 2 2 0
222 298 1 0.0 4.512790882 14.2418631674 7.8413628698 1 1 0
223 233 1 0.0 5.2992741983 15.8446805949 5.3395405007 0 1 0
224 92 1 0.0 6.7543671064 12.3176328757 5.6999605295 0 0 0
225 97 1 0.0 8.4231631945 15.6658402779 9.0635736291 1 2 0
226 97 1 0.0 10.1408614105 15.4443037343 10.8211786502 1 2 0
227 418 1 0.0 16.7278548817 20.1621980505 8.9510397835 1 1 0
228 267 1 0.0 11.425115535 18.1916553498 7.4343939753 2 1 0
229 415 1 0.0 17.1813061327 14.5347271305 7.8589069108 1 1 0
230 186 1 0.0 10.537065173 11.7923741075 11.6055961595 1 2 0
231 259 1 0.0 15.6977959665 11.345734614 2.8333159751 0 -1 0
232 239 1 0.0 18.6675866105 13.3893097986 10.5580877201 1 0 0
233 472 1 0.0 14.7407424946 13.0620590162 12.883581655 0 -1 0
234 271 1 0.0 20.6468981109 13.8572260989 8.2935359348 0 1 0
235 271 1 0.0 23.3709567725 12.308483764 9.4592968207 0 2 0
236 308 1 0.0 18.8935883592 11.7482075494 13.1882388272 1 2 0
237 239 1 0.0 21.5453158694 17.0962849636 9.6071663193 1 0 0
238 379 1 0.0 24.6301909765 13.3531857375 13.7114393228 1 0 0
239 317 1 0.0 29.0933110216 17.744230455 7.1379534159 0 0 0
240 132 1 0.0 27.9315325473 11.6810111426 11.7944477884 -2 1 0
241 193 1 0.0 25.6688480291 16.3015166114 7.5553545347 1 0 0
242 193 1 0.0 25.0218746095 13.3308670475 6.4264113398 1 0 0
243 84 1 0.0 26.0661306254 9.9380630345 8.5331139548 1 1 0
244 181 1 0.0 26.6553773148 14.0704403447 9.5910756877 0 0 0
245 352 1 0.0 24.1777662127 19.165560909 8.7195170607 1 1 0
246 266 1 0.0 5.3251525126 20.4627122853 6.6514492901 1 -1 0
247 371 1 0.0 4.2889269656 25.6332881342 6.4767852713 1 1 0
248 127 1 0.0 1.7921098167 22.7431120806 10.2666258254 0 -1 0
249 66 1 0.0 28.9461704164 16.1566903232 9.7988050055 0 -1 0
250 202 1 0.0 8.3341699182 17.8344042131 11.5148631195 0 1 0
251 202 1 0.0 10.7419662741 17.2746742648 13.8785655467 1 1 0
252 94 1 0.0 7.0092062209 23.6953107885 8.9867300029 0 0 0
253 94 1 0.0 7.6483299437 21.5866575718 8.5404409688 0 0 0
254 300 1 0.0 9.165476158 26.7797547588 6.267357773 1 1 0
255 280 1 0.0 11.2170275372 19.3401710274 10.6985777905 0 0 0
256 47 1 0.0 8.3141749255 19.6072403895 6.1540701784 -1 2 0
257 418 1 0.0 18.6915831244 17.0078554315 7.8450996913 1 1 0
258 275 1 0.0 17.3510743768 17.2603713258 10.6908890347 1 0 0
259 23 1 0.0 14.8967854848 19.3785550245 11.4118692974 1 0 0
260 23 1 0.0 16.4247072629 21.7756190518 12.1330373122 1 0 0
261 421 1 0.0 21.1652185995 21.7898612607 11.36452248 2 0 0
262 264 1 0.0 12.6649743747 23.9616910253 11.3576655349 1 -1 0
263 280 1 0.0 12.5847213489 20.8899272736 9.3765893556 0 0 0
264 166 1 0.0 18.943494347 22.3829796879 5.8375729611 1 -1 0
265 421 1 0.0 21.9813050339 19.7308006789 11.1233346664 2 0 0
266 110 1 0.0 20.0208636558 20.1124895629 8.3559133786 1 1 0
267 478 1 0.0 21.0679809314 24.8300031492 11.6172533268 1 -2 0
268 352 1 0.0 26.6262285078 18.0224276364 10.5677475097 1 1 0
269 235 1 0.0 26.6277160809 21.462709978 9.7007479583 0 1 0
270 235 1 0.0 24.6417414298 19.8343836663 12.2451703218 0 1 0
271 279 1 0.0 1.7394153675 23.7037176903 5.8054894599 2 1 0
272 82 1 0.0 29.8732357897 24.8751328551 12.5912616532 1 0 0
273 13 1 0.0 27.8455854783 22.2780767093 14.4622059572 0 0 0
274 459 1 0.0 26.0906430137 24.6083060789 8.628628049 2 0 0
275 21 1 0.0 29.088813087 21.3454955143 6.0025571043 -1 0 0
276 119 1 0.0 23.702388291 16.6448326631 12.1726329531 0 0 0
277 116 1 0.0 29.1754414251 23.4990125519 8.9370633376 2 -1 0
278 82 1 0.0 28.4675013922 25.5202615187 11.197992833 1 -1 0
279 127 1 0.0 3.3864356789 23.1161336279 9.0309547456 1 -1 0
280 14 1 0.0 3.4045671859 27.6675902191 14.6989741934 0 0 0
281 98 1 0.0 8.8255234112 26.0057431479 10.9779273423 3 0 0
282 90 1 0.0 8.6631232223 1.0114646633 8.6469744429 2 0 0
283 300 1 0.0 9.8976522787 24.8561888134 8.3087230195 1 1 0
284 98 1 0.0 5.3944423756 22.2863242644 11.2182203662 3 0 0
285 90 1 0.0 6.6638642303 29.036174617 11.6847510901 2 -1 0
286 58 1 0.0 11.0579635552 24.0360282791 14.1534706109 -1 1 0
287 345 1 0.0 9.9566693416 28.6873366375 12.534264741 1 0 0
288 345 1 0.0 12.3729892972 29.8878081442 11.2622482466 1 0 0
289 478 1 0.0 18.5525988064 23.0548279736 13.7192538047 1 -2 0
290 122 1 0.0 17.365249984 25.4084699208 10.9489746776 1 0 0
291 58 1 0.0 9.270889838 22.3624846655 11.1496237556 -1 1 0
292 476 1 0.0 15.3806117673 24.7346614434 13.5944129366 1 -1 0
293 122 1 0.0 18.1684079559 23.120138591 9.8385709686 1 0 0
294 360 1 0.0 24.0346374401 22.6373233568 10.4990918731 3 0 0
295 360 1 0.0 21.480703766 22.9981417877 8.4118835628 3 0 0
296 486 1 0.0 27.6935928198 25.4998736019 15.1689363362 0 0 0
297 395 1 0.0 28.0145845082 28.2323790047 6.5569326541 1 0 0
298 210 1 0.0 22.1098313629 29.2354207047 9.2025537252 2 -1 0
299 13 1 0.0 25.7140871849 21.718924975 13.7749119426 0 0 0
300 486 1 0.0 26.8800515744 27.6346114432 13.9891161756 0 0 0
301 459 1 0.0 27.0210561807 24.9996398213 6.1240378658 1 1 0
302 205 1 0.0 28.3728974639 1.5119335877 13.4742403157 0 0 0
303 463 1 0.0 0.2744961214 16.6498401476 12.5287631826 2 0 0
304 118 1 0.0 6.5648055082 4.8495757652 14.6728352765 2 2 0
305 174 1 0.0 1.0253486268 3.080023995 16.467164633 1 -1 0
306 358 1 0.0 26.2414038884 3.8341373501 15.492899408 0 0 0
307 354 1 0.0 2.5892760302 4.5796040235 14.0815653446 2 1 0
308 253 1 0.0 7.0355066434 29.4666065276 16.5670936701 1 -1 0
309 414 1 0.0 28.1778986475 3.1611487902 18.3713860094 2 2 0
310 273 1 0.0 10.8493068873 4.4517830057 13.733327817 2 0 0
311 103 1 0.0 8.8375667713 2.6649786525 18.3962999043 1 1 0
312 273 1 0.0 12.2886912336 6.8541401607 13.2340108434 2 1 0
313 253 1 0.0 7.3041054966 1.1664175534 13.8801661671 1 0 0
314 322 1 0.0 9.8122615613 27.8433904737 15.4152379525 2 -1 0
315 99 1 0.0 10.6236653452 7.6769478494 15.560058211 1 0 0
316 322 1 0.0 10.2892679624 29.5523350635 18.575373871 1 -1 0
317 195 1 0.0 15.7308602632 28.9148988631 11.8781850495 0 -1 0
318 490 1 0.0 14.8161205117 2.4183468884 12.3579765403 2 1 0
319 49 1 0.0 15.5286981189 27.9024305827 15.0496562823 0 1 0
320 490 1 0.0 13.074509187 3.1542221694 11.6568916206 2 1 0
321 160 1 0.0 13.5267078541 6.3115327664 16.5216386415 1 0 0
322 108 1 0.0 18.2542088226 28.6712171481 18.4925610151 1 -1 0
323 167 1 0.0 11.4757194358 5.1481158389 18.7185124641 2 2 0
324 156 1 0.0 19.5388263196 26.1504551418 21.1239012381 2 0 0
325 373 1 0.0 19.8540873234 28.0013311792 15.6461424354 1 -1 0
326 201 1 0.0 23.9541858575 27.4331191434 19.5266843279 0 0 0
327 212 1 0.0 18.5859228684 1.7801792422 16.7925597256 1 1 0
328 219 1 0.0 22.8272543212 3.0725519105 17.3097840517 1 1 0
329 212 1 0.0 16.4611519846 5.0583699944 17.6702759228 1 1 0
330 341 1 0.0 18.0481354349 3.0700069927 13.8436148171 1 0 0
331 219 1 0.0 21.3688992459 1.4966220783 15.0785475588 1 1 0
332 111 1 0.0 21.8610632827 29.3091194835 17.9405322886 0 1 0
333 330 1 0.0 24.8324258626 3.8155428842 19.7850566284 1 -1 0
334 358 1 0.0 24.3997758583 0.800872363 15.6717576514 0 0 0
335 414 1 0.0 28.1859812851 0.6321674287 16.4914460399 2 2 0
336 473 1 0.0 28.6626489164 5.2282324151 20.3256105888 1 1 0
337 362 1 0.0 4.2273907472 12.3904795822 13.7515744895 2 1 0
338 372 1 0.0 6.1790966928 10.786943248 16.3070593173 1 0 0
339 350 1 0.0 1.3904551133 2.4463474296 12.1536340003 2 0 0
340 224 1 0.0 7.4777225985 8.2913525846 16.4000081696 2 0 0
341 96 1 0.0 3.325417767 9.7194762608 17.478090542 1 1 0
342 18 1 0.0 1.7048175228 14.9995101629 15.1177490458 1 0 0
343 15 1 0.0 2.1107264548 6.9094899485 15.6589340925 1 1 0
344 15 1 0.0 3.9229785072 8.2840455416 13.9608726501 1 1 0
345 99 1 0.0 9.8732602257 8.5910892223 12.3622246992 1 0 0
346 224 1 0.0 6.4993128304 9.4866391218 19.0364032226 2 0 0
347 372 1 0.0 7.1365316523 13.7910152902 16.0764424687 2 0 0
348 79 1 0.0 9.7426255763 10.6116043018 14.7554488653 1 0 0
349 96 1 0.0 4.1493537497 11.7574950776 19.9436472192 1 0 0
350 143 1 0.0 10.1037241105 10.0224830591 17.9250584216 1 1 0
351 281 1 0.0 12.7613108201 9.781579618 16.5759988582 1 1 0
352 160 1 0.0 15.5995002764 4.7781190855 14.4677701338 1 0 0
353 227 1 0.0 18.8274633602 7.7363948979 18.2417924687 0 2 0
354 79 1 0.0 13.3336410236 10.4814811839 13.5981470994 1 0 0
355 281 1 0.0 10.8238117318 12.7926309934 19.5094528844 1 1 0
356 227 1 0.0 16.331259942 9.9979921703 16.5232144547 0 2 0
357 351 1 0.0 12.4818970249 11.0959738374 21.4148198453 2 1 0
358 430 1 0.0 14.0544014091 12.8261469764 16.4666460716 1 1 0
359 187 1 0.0 10.9846644593 8.6562108291 21.1423386094 1 2 0
360 187 1 0.0 8.5896725948 6.8291661164 18.779776073 1 2 0
361 65 1 0.0 21.5402051136 3.9852624896 13.7196407152 0 0 0
362 190 1 0.0 19.5662569661 9.0745270174 14.4131296894 1 -1 0
363 190 1 0.0 18.6156239959 6.6184342034 15.5762017264 1 -1 0
364 411 1 0.0 23.6495214446 9.4259509389 10.9930755579 -1 1 0
365 72 1 0.0 21.9862830168 11.7238118837 17.1714331247 1 0 0
366 394 1 0.0 22.1669169418 6.3168106936 16.1458653493 3 0 0
367 169 1 0.0 27.9989523738 6.542543192 16.736038255 1 1 0
368 411 1 0.0 21.264067166 8.7510692149 11.8684456761 -1 1 0
369 350 1 0.0 29.3395038296 4.2917316935 14.3515727554 1 0 0
370 307 1 0.0 24.7477280514 6.4856425961 13.2264284359 1 2 0
371 307 1 0.0 24.8362895474 8.0113889388 15.2485751666 1 2 0
372 109 1 0.0 26.601518931 10.4997896408 15.6840424813 -1 1 0
373 475 1 0.0 26.8538144226 12.6878526629 18.0510479049 2 -1 0
374 169 1 0.0 25.2409561627 6.1343936904 17.4743303837 2 1 0
375 362 1 0.0 4.3071835423 14.7146180526 10.9693217745 2 1 0
376 292 1 0.0 5.9607443896 15.6886833894 13.534711786 1 1 0
377 35 1 0.0 0.9124812831 9.9633435677 15.4366694611 2 0 0
378 35 1 0.0 29.8907897807 12.4613618417 15.9473007779 0 0 0
379 206 1 0.0 4.4658287676 15.8202678897 16.4663230574 1 1 0
380 25 1 0.0 2.0182324828 15.2894689197 19.2165596079 2 1 0
381 143 1 0.0 8.5541227516 11.5975356873 17.9279781727 1 1 0
382 161 1 0.0 8.9849465619 15.4491588473 17.9559652045 1 1 0
383 161 1 0.0 11.0553891233 14.6529266909 16.7317945398 1 1 0
384 238 1 0.0 13.0120678507 19.3953434774 14.7024743357 1 -1 0
385 462 1 0.0 10.6597904412 17.7671854355 20.4724418604 1 -1 0
386 426 1 0.0 14.863485492 15.5933968711 18.7870121617 2 1 0
387 80 1 0.0 13.761640797 16.1863817926 12.4061664879 0 0 0
388 186 1 0.0 11.8130728608 13.3206645475 13.6353057249 1 2 0
389 426 1 0.0 12.3656304453 15.3766080812 19.6829014494 1 1 0
390 157 1 0.0 17.0311198972 21.2548503873 20.3717613468 1 0 0
391 157 1 0.0 16.882891229 18.7955331729 18.9710492787 1 0 0
392 80 1 0.0 16.9121102514 15.6408669749 13.5825756647 0 0 0
393 287 1 0.0 15.0303486447 11.5478598152 19.6849341715 2 1 0
394 308 1 0.0 22.1473057527 11.991605417 12.2003246059 1 2 0
395 63 1 0.0 17.8272125282 16.4264631702 16.6201077137 0 1 0
396 430 1 0.0 18.8889469947 12.6054146316 16.3744754661 1 1 0
397 376 1 0.0 23.1122390125 15.107059879 17.2233769219 1 -1 0
398 379 1 0.0 25.859652626 15.0378314013 15.766336027 2 1 0
399 115 1 0.0 26.5504394877 20.5388416103 16.8876618773 1 1 0
400 38 1 0.0 20.6028101599 17.6634672963 15.9442282648 0 0 0
401 181 1 0.0 27.2568108114 14.6386800693 12.4548245343 0 0 0
402 18 1 0.0 28.5850402346 16.1946271225 16.0474660093 0 0 0
403 109 1 0.0 27.1422693232 8.6986411262 12.755892509 -1 1 0
404 115 1 0.0 25.0710634474 18.5336339214 17.661513789 2 1 0
405 255 1 0.0 0.2728984295 16.2269868562 21.9440269651 1 0 0
406 423 1 0.0 25.439595182 15.470587806 19.6314300891 1 0 0
407 255 1 0.0 28.3664758013 18.1474082854 18.7894603106 1 0 0
408 377 1 0.0 4.844317597 18.2205901616 10.2972421908 2 1 0
409 477 1 0.0 5.6725146309 18.2466838413 18.5559003284 2 1 0
410 151 1 0.0 5.1116392891 22.2818059179 15.6044680987 1 1 0
411 119 1 0.0 27.0881345176 17.3084279929 13.7379514994 0 0 0
412 241 1 0.0 6.6880818918 22.7124124385 17.9385916665 1 0 0
413 158 1 0.0 2.5115050158 19.443696108 15.4700542439 1 1 0
414 449 1 0.0 1.4741349227 20.2191734827 12.0668444026 0 1 0
415 377 1 0.0 1.9112595857 15.8101475141 9.1809105413 2 1 0
416 241 1 0.0 8.5341276245 20.7564612276 14.4886069151 1 0 0
417 462 1 0.0 11.4727781056 17.8874191173 17.245185155 0 -1 0
418 252 1 0.0 8.7725976049 18.8910101733 16.6267143581 2 -1 0
419 155 1 0.0 13.2006658703 19.9504253228 19.4447255692 1 -1 0
420 155 1 0.0 13.3416262596 21.3320192371 19.8500157216 1 -1 0
421 275 1 0.0 17.4881171915 18.6153451191 14.0305974237 1 0 0
422 238 1 0.0 12.9795559724 21.7747656204 13.6469449337 1 -1 0
423 403 1 0.0 14.6956020316 17.21087633 15.8052460353 1 0 0
424 403 1 0.0 15.2756914764 20.8766849591 16.4204941033 1 0 0
425 101 1 0.0 18.1527429981 21.7014234966 17.5086286768 2 -2 0
426 63 1 0.0 19.2351857094 15.9954839057 18.5908129589 0 1 0
427 347 1 0.0 20.2103475412 19.3049364829 18.6571642193 2 0 0
428 38 1 0.0 20.7704729973 14.850708977 13.8379130911 -1 0 0
429 41 1 0.0 22.3490993831 21.096077405 14.8148687653 1 0 0
430 41 1 0.0 23.0309298824 19.8819092325 15.9407557637 1 0 0
431 347 1 0.0 22.5905002487 17.2247948308 19.9823684374 2 0 0
432 463 1 0.0 29.4152582654 19.5340498197 14.414169351 1 0 0
433 158 1 0.0 1.7177557836 17.9106661017 16.385286862 1 1 0
434 288 1 0.0 27.6111253014 21.8089951552 20.5926183442 1 0 0
435 449 1 0.0 0.7095110082 22.4837521289 15.3305353127 0 1 0
436 76 1 0.0 27.6824683341 16.9884024623 24.1775626057 1 -1 0
437 366 1 0.0 1.1430583712 22.0466284845 20.5944544461 2 0 0
438 129 1 0.0 7.4421488823 24.4233295454 14.2616905482 1 1 0
439 105 1 0.0 5.0534003716 25.8720268304 17.0130055893 1 1 0
440 174 1 0.0 0.8182951572 0.7386994648 14.978726822 2 -1 0
441 151 1 0.0 3.0980407883 23.9639103381 13.010902372 1 2 0
442 295 1 0.0 6.5274812383 27.5853306801 19.2497786648 1 0 0
443 105 1 0.0 2.5334121892 25.3136456332 16.5623270721 1 1 0
444 295 1 0.0 6.7488182603 29.5903311417 19.6004555721 1 0 0
445 44 1 0.0 3.4205110028 27.7997513971 19.0275866883 2 0 0
446 129 1 0.0 6.5469930925 27.0444390765 14.7567310379 2 1 0
447 424 1 0.0 14.4154959919 0.2793603494 8.9277656653 2 2 0
448 443 1 0.0 12.2106434702 22.6849718266 17.1898421391 1 0 0
449 443 1 0.0 13.0055569912 24.1038725015 18.5837848716 1 0 0
450 323 1 0.0 12.54259059 25.9490720982 16.2341695039 3 0 0
451 323 1 0.0 8.5344104261 25.8563460226 17.0659799121 3 0 0
452 57 1 0.0 8.900285684 28.251849277 22.4141680276 0 0 0
453 424 1 0.0 12.6008880487 27.0667312793 13.1247527085 2 1 0
454 108 1 0.0 17.9777931686 24.5675487099 16.4192027161 1 -1 0
455 101 1 0.0 20.7777462101 23.1018446949 18.3192405534 2 -2 0
456 103 1 0.0 10.4224823015 0.7381002847 15.0926028345 1 1 0
457 476 1 0.0 15.1874942444 24.2747688797 16.0189139016 1 -1 0
458 111 1 0.0 24.2486986686 27.8280716018 15.3786358627 0 1 0
459 335 1 0.0 22.8849721259 24.9313046232 17.5324829863 0 1 0
460 373 1 0.0 18.4907502197 26.2536449683 13.6267103008 1 -1 0
461 338 1 0.0 21.9391042781 27.442807198 13.1483114192 2 0 0
462 338 1 0.0 24.4522805836 24.9536376296 13.4638413899 2 0 0
463 156 1 0.0 17.3872482064 24.6484290196 20.1251800519 2 0 0
464 339 1 0.0 27.4134382458 27.6016351411 17.6374865313 0 0 0
465 335 1 0.0 20.4146135748 26.1123535757 18.2045434962 1 1 0
466 205 1 0.0 29.8719916358 27.3655325955 14.9919775808 0 -1 0
467 288 1 0.0 0.1780840003 25.464779601 19.1131333834 3 0 0
468 470 1 0.0 25.1659880032 3.0971190456 12.5721934577 0 1 0
469 17 1 0.0 25.8690071028 0.5507699588 18.5346962474 1 1 0
470 17 1 0.0 27.600815651 28.4354705979 20.5636894366 2 0 0
471 339 1 0.0 26.4870857027 23.4251916724 17.0760303722 1 0 0
472 366 1 0.0 29.4518192369 21.5514496027 18.2057148221 2 0 0
473 354 1 0.0 3.8897107064 3.4692610031 15.043535527 1 1 0
474 28 1 0.0 28.383909161 5.940316369 23.8930261963 1 0 0
475 374 1 0.0 0.5365957367 2.0902729662 25.5229549379 2 1 0
476 28 1 0.0 1.0537571969 5.5163258263 26.4300807955 2 0 0
477 88 1 0.0 3.3585195195 2.8624664796 20.1065248122 1 0 0
478 61 1 0.0 5.1180241092 1.1000723334 26.2120100811 1 2 0
479 319 1 0.0 4.7530927069 6.8094101711 17.1290860602 0 0 0
480 88 1 0.0 6.5125982696 2.5627320343 20.8176643942 1 0 0
481 9 1 0.0 12.0688886389 5.1493906645 24.5324046266 1 2 0
482 196 1 0.0 6.8834984922 2.2855580089 24.0621167507 2 0 0
483 196 1 0.0 4.6207410024 3.8176273897 23.8157744141 2 0 0
484 197 1 0.0 7.4945114593 5.2931557592 21.662865925 1 0 0
485 57 1 0.0 9.1955687741 27.5463275978 21.1772868355 0 0 0
486 48 1 0.0 9.6897803454 2.1648137442 22.1340577813 0 0 0