# LAMMPS data file written by OVITO Pro 3.7.4
724 atoms
1 atom types
0.0 30.5 xlo xhi
0.0 30.0 ylo yhi
0.0 45.0 zlo zhi

Atoms  # full

1 1 1 0.0 1.2297560734 0.0 0.0 0 0 0
2 1 1 0.0 0.0 0.71 0.0 0 0 0
3 1 1 0.0 0.0 2.13 0.0 0 0 0
4 1 1 0.0 1.2297560734 2.84 0.0 0 0 0
5 2 1 0.0 3.6892682201 0.0 0.0 0 0 0
6 2 1 0.0 2.4595121467 0.71 0.0 0 0 0
7 2 1 0.0 2.4595121467 2.13 0.0 0 0 0
8 2 1 0.0 3.6892682201 2.84 0.0 0 0 0
9 3 1 0.0 4.9190242935 0.71 0.0 0 0 0
10 3 1 0.0 4.9190242935 2.13 0.0 0 0 0
11 15 1 0.0 1.2297560734 4.26 0.0 0 0 0
12 15 1 0.0 0.0 4.97 0.0 0 0 0
13 16 1 0.0 3.6892682201 4.26 0.0 0 0 0
14 16 1 0.0 2.4595121467 4.97 0.0 0 0 0
15 17 1 0.0 4.9190242935 4.97 0.0 0 0 0
16 3 1 0.0 6.1487803669 0.0 0.0 0 0 0
17 3 1 0.0 6.1487803669 2.84 0.0 0 0 0
18 4 1 0.0 8.6082925136 0.0 0.0 0 0 0
19 4 1 0.0 7.3785364402 0.71 0.0 0 0 0
20 4 1 0.0 7.3785364402 2.13 0.0 0 0 0
21 4 1 0.0 8.6082925136 2.84 0.0 0 0 0
22 5 1 0.0 11.0678046604 0.0 0.0 0 0 0
23 5 1 0.0 9.838048587 0.71 0.0 0 0 0
24 5 1 0.0 9.838048587 2.13 0.0 0 0 0
25 5 1 0.0 11.0678046604 2.84 0.0 0 0 0
26 17 1 0.0 6.1487803669 4.26 0.0 0 0 0
27 18 1 0.0 8.6082925136 4.26 0.0 0 0 0
28 18 1 0.0 7.3785364402 4.97 0.0 0 0 0
29 19 1 0.0 11.0678046604 4.26 0.0 0 0 0
30 19 1 0.0 9.838048587 4.97 0.0 0 0 0
31 6 1 0.0 13.5273168071 0.0 0.0 0 0 0
32 6 1 0.0 12.2975607337 0.71 0.0 0 0 0
33 6 1 0.0 12.2975607337 2.13 0.0 0 0 0
34 6 1 0.0 13.5273168071 2.84 0.0 0 0 0
35 7 1 0.0 15.9868289539 0.0 0.0 0 0 0
36 7 1 0.0 14.7570728805 0.71 0.0 0 0 0
37 7 1 0.0 14.7570728805 2.13 0.0 0 0 0
38 7 1 0.0 15.9868289539 2.84 0.0 0 0 0
39 8 1 0.0 17.2165850272 0.71 0.0 0 0 0
40 8 1 0.0 17.2165850272 2.13 0.0 0 0 0
41 20 1 0.0 13.5273168071 4.26 0.0 0 0 0
42 20 1 0.0 12.2975607337 4.97 0.0 0 0 0
43 21 1 0.0 15.9868289539 4.26 0.0 0 0 0
44 21 1 0.0 14.7570728805 4.97 0.0 0 0 0
45 22 1 0.0 17.2165850272 4.97 0.0 0 0 0
46 8 1 0.0 18.4463411006 0.0 0.0 0 0 0
47 8 1 0.0 18.4463411006 2.84 0.0 0 0 0
48 9 1 0.0 20.9058532474 0.0 0.0 0 0 0
49 9 1 0.0 19.676097174 0.71 0.0 0 0 0
50 9 1 0.0 19.676097174 2.13 0.0 0 0 0
51 9 1 0.0 20.9058532474 2.84 0.0 0 0 0
52 10 1 0.0 23.3653653941 0.0 0.0 0 0 0
53 10 1 0.0 22.1356093207 0.71 0.0 0 0 0
54 10 1 0.0 22.1356093207 2.13 0.0 0 0 0
55 10 1 0.0 23.3653653941 2.84 0.0 0 0 0
56 22 1 0.0 18.4463411006 4.26 0.0 0 0 0
57 23 1 0.0 20.9058532474 4.26 0.0 0 0 0
58 23 1 0.0 19.676097174 4.97 0.0 0 0 0
59 24 1 0.0 23.3653653941 4.26 0.0 0 0 0
60 24 1 0.0 22.1356093207 4.97 0.0 0 0 0
61 11 1 0.0 25.8248775409 0.0 0.0 0 0 0
62 11 1 0.0 24.5951214675 0.71 0.0 0 0 0
63 11 1 0.0 24.5951214675 2.13 0.0 0 0 0
64 11 1 0.0 25.8248775409 2.84 0.0 0 0 0
65 12 1 0.0 28.2843896876 0.0 0.0 0 0 0
66 12 1 0.0 27.0546336142 0.71 0.0 0 0 0
67 12 1 0.0 27.0546336142 2.13 0.0 0 0 0
68 12 1 0.0 28.2843896876 2.84 0.0 0 0 0
69 13 1 0.0 29.514145761 0.71 0.0 0 0 0
70 13 1 0.0 29.514145761 2.13 0.0 0 0 0
71 25 1 0.0 25.8248775409 4.26 0.0 0 0 0
72 25 1 0.0 24.5951214675 4.97 0.0 0 0 0
73 26 1 0.0 28.2843896876 4.26 0.0 0 0 0
74 26 1 0.0 27.0546336142 4.97 0.0 0 0 0
75 27 1 0.0 29.514145761 4.97 0.0 0 0 0
76 15 1 0.0 0.0 6.39 0.0 0 0 0
77 15 1 0.0 1.2297560734 7.1 0.0 0 0 0
78 16 1 0.0 2.4595121467 6.39 0.0 0 0 0
79 16 1 0.0 3.6892682201 7.1 0.0 0 0 0
80 17 1 0.0 4.9190242935 6.39 0.0 0 0 0
81 29 1 0.0 1.2297560734 8.52 0.0 0 0 0
82 29 1 0.0 0.0 9.23 0.0 0 0 0
83 29 1 0.0 0.0 10.65 0.0 0 0 0
84 29 1 0.0 1.2297560734 11.36 0.0 0 0 0
85 30 1 0.0 3.6892682201 8.52 0.0 0 0 0
86 30 1 0.0 2.4595121467 9.23 0.0 0 0 0
87 30 1 0.0 2.4595121467 10.65 0.0 0 0 0
88 30 1 0.0 3.6892682201 11.36 0.0 0 0 0
89 31 1 0.0 4.9190242935 9.23 0.0 0 0 0
90 31 1 0.0 4.9190242935 10.65 0.0 0 0 0
91 17 1 0.0 6.1487803669 7.1 0.0 0 0 0
92 18 1 0.0 7.3785364402 6.39 0.0 0 0 0
93 18 1 0.0 8.6082925136 7.1 0.0 0 0 0
94 19 1 0.0 9.838048587 6.39 0.0 0 0 0
95 19 1 0.0 11.0678046604 7.1 0.0 0 0 0
96 31 1 0.0 6.1487803669 8.52 0.0 0 0 0
97 31 1 0.0 6.1487803669 11.36 0.0 0 0 0
98 32 1 0.0 8.6082925136 8.52 0.0 0 0 0
99 32 1 0.0 7.3785364402 9.23 0.0 0 0 0
100 32 1 0.0 7.3785364402 10.65 0.0 0 0 0
101 32 1 0.0 8.6082925136 11.36 0.0 0 0 0
102 33 1 0.0 11.0678046604 8.52 0.0 0 0 0
103 33 1 0.0 9.838048587 9.23 0.0 0 0 0
104 33 1 0.0 9.838048587 10.65 0.0 0 0 0
105 33 1 0.0 11.0678046604 11.36 0.0 0 0 0
106 20 1 0.0 12.2975607337 6.39 0.0 0 0 0
107 20 1 0.0 13.5273168071 7.1 0.0 0 0 0
108 21 1 0.0 14.7570728805 6.39 0.0 0 0 0
109 21 1 0.0 15.9868289539 7.1 0.0 0 0 0
110 22 1 0.0 17.2165850272 6.39 0.0 0 0 0
111 34 1 0.0 13.5273168071 8.52 0.0 0 0 0
112 34 1 0.0 12.2975607337 9.23 0.0 0 0 0
113 34 1 0.0 12.2975607337 10.65 0.0 0 0 0
114 34 1 0.0 13.5273168071 11.36 0.0 0 0 0
115 35 1 0.0 15.9868289539 8.52 0.0 0 0 0
116 35 1 0.0 14.7570728805 9.23 0.0 0 0 0
117 35 1 0.0 14.7570728805 10.65 0.0 0 0 0
118 35 1 0.0 15.9868289539 11.36 0.0 0 0 0
119 36 1 0.0 17.2165850272 9.23 0.0 0 0 0
120 36 1 0.0 17.2165850272 10.65 0.0 0 0 0
121 22 1 0.0 18.4463411006 7.1 0.0 0 0 0
122 23 1 0.0 19.676097174 6.39 0.0 0 0 0
123 23 1 0.0 20.9058532474 7.1 0.0 0 0 0
124 24 1 0.0 22.1356093207 6.39 0.0 0 0 0
125 24 1 0.0 23.3653653941 7.1 0.0 0 0 0
126 36 1 0.0 18.4463411006 8.52 0.0 0 0 0
127 36 1 0.0 18.4463411006 11.36 0.0 0 0 0
128 37 1 0.0 20.9058532474 8.52 0.0 0 0 0
129 37 1 0.0 19.676097174 9.23 0.0 0 0 0
130 37 1 0.0 19.676097174 10.65 0.0 0 0 0
131 37 1 0.0 20.9058532474 11.36 0.0 0 0 0
132 38 1 0.0 23.3653653941 8.52 0.0 0 0 0
133 38 1 0.0 22.1356093207 9.23 0.0 0 0 0
134 38 1 0.0 22.1356093207 10.65 0.0 0 0 0
135 38 1 0.0 23.3653653941 11.36 0.0 0 0 0
136 25 1 0.0 24.5951214675 6.39 0.0 0 0 0
137 25 1 0.0 25.8248775409 7.1 0.0 0 0 0
138 26 1 0.0 27.0546336142 6.39 0.0 0 0 0
139 26 1 0.0 28.2843896876 7.1 0.0 0 0 0
140 27 1 0.0 29.514145761 6.39 0.0 0 0 0
141 39 1 0.0 25.8248775409 8.52 0.0 0 0 0
142 39 1 0.0 24.5951214675 9.23 0.0 0 0 0
143 39 1 0.0 24.5951214675 10.65 0.0 0 0 0
144 39 1 0.0 25.8248775409 11.36 0.0 0 0 0
145 40 1 0.0 28.2843896876 8.52 0.0 0 0 0
146 40 1 0.0 27.0546336142 9.23 0.0 0 0 0
147 40 1 0.0 27.0546336142 10.65 0.0 0 0 0
148 40 1 0.0 28.2843896876 11.36 0.0 0 0 0
149 41 1 0.0 29.514145761 9.23 0.0 0 0 0
150 41 1 0.0 29.514145761 10.65 0.0 0 0 0
151 43 1 0.0 1.2297560734 12.78 0.0 0 0 0
152 43 1 0.0 0.0 13.49 0.0 0 0 0
153 43 1 0.0 0.0 14.91 0.0 0 0 0
154 43 1 0.0 1.2297560734 15.62 0.0 0 0 0
155 44 1 0.0 3.6892682201 12.78 0.0 0 0 0
156 44 1 0.0 2.4595121467 13.49 0.0 0 0 0
157 44 1 0.0 2.4595121467 14.91 0.0 0 0 0
158 44 1 0.0 3.6892682201 15.62 0.0 0 0 0
159 45 1 0.0 4.9190242935 13.49 0.0 0 0 0
160 45 1 0.0 4.9190242935 14.91 0.0 0 0 0
161 57 1 0.0 1.2297560734 17.04 0.0 0 0 0
162 57 1 0.0 0.0 17.75 0.0 0 0 0
163 58 1 0.0 3.6892682201 17.04 0.0 0 0 0
164 58 1 0.0 2.4595121467 17.75 0.0 0 0 0
165 59 1 0.0 4.9190242935 17.75 0.0 0 0 0
166 45 1 0.0 6.1487803669 12.78 0.0 0 0 0
167 45 1 0.0 6.1487803669 15.62 0.0 0 0 0
168 46 1 0.0 8.6082925136 12.78 0.0 0 0 0
169 46 1 0.0 7.3785364402 13.49 0.0 0 0 0
170 46 1 0.0 7.3785364402 14.91 0.0 0 0 0
171 46 1 0.0 8.6082925136 15.62 0.0 0 0 0
172 47 1 0.0 11.0678046604 12.78 0.0 0 0 0
173 47 1 0.0 9.838048587 13.49 0.0 0 0 0
174 47 1 0.0 9.838048587 14.91 0.0 0 0 0
175 47 1 0.0 11.0678046604 15.62 0.0 0 0 0
176 59 1 0.0 6.1487803669 17.04 0.0 0 0 0
177 60 1 0.0 8.6082925136 17.04 0.0 0 0 0
178 60 1 0.0 7.3785364402 17.75 0.0 0 0 0
179 61 1 0.0 11.0678046604 17.04 0.0 0 0 0
180 61 1 0.0 9.838048587 17.75 0.0 0 0 0
181 48 1 0.0 13.5273168071 12.78 0.0 0 0 0
182 48 1 0.0 12.2975607337 13.49 0.0 0 0 0
183 48 1 0.0 12.2975607337 14.91 0.0 0 0 0
184 48 1 0.0 13.5273168071 15.62 0.0 0 0 0
185 49 1 0.0 15.9868289539 12.78 0.0 0 0 0
186 49 1 0.0 14.7570728805 13.49 0.0 0 0 0
187 49 1 0.0 14.7570728805 14.91 0.0 0 0 0
188 49 1 0.0 15.9868289539 15.62 0.0 0 0 0
189 50 1 0.0 17.2165850272 13.49 0.0 0 0 0
190 50 1 0.0 17.2165850272 14.91 0.0 0 0 0
191 62 1 0.0 13.5273168071 17.04 0.0 0 0 0
192 62 1 0.0 12.2975607337 17.75 0.0 0 0 0
193 63 1 0.0 15.9868289539 17.04 0.0 0 0 0
194 63 1 0.0 14.7570728805 17.75 0.0 0 0 0
195 64 1 0.0 17.2165850272 17.75 0.0 0 0 0
196 50 1 0.0 18.4463411006 12.78 0.0 0 0 0
197 50 1 0.0 18.4463411006 15.62 0.0 0 0 0
198 51 1 0.0 20.9058532474 12.78 0.0 0 0 0
199 51 1 0.0 19.676097174 13.49 0.0 0 0 0
200 51 1 0.0 19.676097174 14.91 0.0 0 0 0
201 51 1 0.0 20.9058532474 15.62 0.0 0 0 0
202 52 1 0.0 23.3653653941 12.78 0.0 0 0 0
203 52 1 0.0 22.1356093207 13.49 0.0 0 0 0
204 52 1 0.0 22.1356093207 14.91 0.0 0 0 0
205 52 1 0.0 23.3653653941 15.62 0.0 0 0 0
206 64 1 0.0 18.4463411006 17.04 0.0 0 0 0
207 65 1 0.0 20.9058532474 17.04 0.0 0 0 0
208 65 1 0.0 19.676097174 17.75 0.0 0 0 0
209 66 1 0.0 23.3653653941 17.04 0.0 0 0 0
210 66 1 0.0 22.1356093207 17.75 0.0 0 0 0
211 53 1 0.0 25.8248775409 12.78 0.0 0 0 0
212 53 1 0.0 24.5951214675 13.49 0.0 0 0 0
213 53 1 0.0 24.5951214675 14.91 0.0 0 0 0
214 53 1 0.0 25.8248775409 15.62 0.0 0 0 0
215 54 1 0.0 28.2843896876 12.78 0.0 0 0 0
216 54 1 0.0 27.0546336142 13.49 0.0 0 0 0
217 54 1 0.0 27.0546336142 14.91 0.0 0 0 0
218 54 1 0.0 28.2843896876 15.62 0.0 0 0 0
219 55 1 0.0 29.514145761 13.49 0.0 0 0 0
220 55 1 0.0 29.514145761 14.91 0.0 0 0 0
221 67 1 0.0 25.8248775409 17.04 0.0 0 0 0
222 67 1 0.0 24.5951214675 17.75 0.0 0 0 0
223 68 1 0.0 28.2843896876 17.04 0.0 0 0 0
224 68 1 0.0 27.0546336142 17.75 0.0 0 0 0
225 69 1 0.0 29.514145761 17.75 0.0 0 0 0
226 57 1 0.0 0.0 19.17 0.0 0 0 0
227 57 1 0.0 1.2297560734 19.88 0.0 0 0 0
228 58 1 0.0 2.4595121467 19.17 0.0 0 0 0
229 58 1 0.0 3.6892682201 19.88 0.0 0 0 0
230 59 1 0.0 4.9190242935 19.17 0.0 0 0 0
231 71 1 0.0 1.2297560734 21.3 0.0 0 0 0
232 71 1 0.0 0.0 22.01 0.0 0 0 0
233 71 1 0.0 0.0 23.43 0.0 0 0 0
234 72 1 0.0 3.6892682201 21.3 0.0 0 0 0
235 72 1 0.0 2.4595121467 22.01 0.0 0 0 0
236 72 1 0.0 2.4595121467 23.43 0.0 0 0 0
237 73 1 0.0 4.9190242935 22.01 0.0 0 0 0
238 73 1 0.0 4.9190242935 23.43 0.0 0 0 0
239 59 1 0.0 6.1487803669 19.88 0.0 0 0 0
240 60 1 0.0 7.3785364402 19.17 0.0 0 0 0
241 60 1 0.0 8.6082925136 19.88 0.0 0 0 0
242 61 1 0.0 9.838048587 19.17 0.0 0 0 0
243 61 1 0.0 11.0678046604 19.88 0.0 0 0 0
244 73 1 0.0 6.1487803669 21.3 0.0 0 0 0
245 74 1 0.0 8.6082925136 21.3 0.0 0 0 0
246 74 1 0.0 7.3785364402 22.01 0.0 0 0 0
247 74 1 0.0 7.3785364402 23.43 0.0 0 0 0
248 75 1 0.0 11.0678046604 21.3 0.0 0 0 0
249 75 1 0.0 9.838048587 22.01 0.0 0 0 0
250 75 1 0.0 9.838048587 23.43 0.0 0 0 0
251 62 1 0.0 12.2975607337 19.17 0.0 0 0 0
252 62 1 0.0 13.5273168071 19.88 0.0 0 0 0
253 63 1 0.0 14.7570728805 19.17 0.0 0 0 0
254 63 1 0.0 15.9868289539 19.88 0.0 0 0 0
255 64 1 0.0 17.2165850272 19.17 0.0 0 0 0
256 76 1 0.0 13.5273168071 21.3 0.0 0 0 0
257 76 1 0.0 12.2975607337 22.01 0.0 0 0 0
258 76 1 0.0 12.2975607337 23.43 0.0 0 0 0
259 77 1 0.0 15.9868289539 21.3 0.0 0 0 0
260 77 1 0.0 14.7570728805 22.01 0.0 0 0 0
261 77 1 0.0 14.7570728805 23.43 0.0 0 0 0
262 78 1 0.0 17.2165850272 22.01 0.0 0 0 0
263 78 1 0.0 17.2165850272 23.43 0.0 0 0 0
264 64 1 0.0 18.4463411006 19.88 0.0 0 0 0
265 65 1 0.0 19.676097174 19.17 0.0 0 0 0
266 65 1 0.0 20.9058532474 19.88 0.0 0 0 0
267 66 1 0.0 22.1356093207 19.17 0.0 0 0 0
268 66 1 0.0 23.3653653941 19.88 0.0 0 0 0
269 78 1 0.0 18.4463411006 21.3 0.0 0 0 0
270 79 1 0.0 20.9058532474 21.3 0.0 0 0 0
271 79 1 0.0 19.676097174 22.01 0.0 0 0 0
272 79 1 0.0 19.676097174 23.43 0.0 0 0 0
273 80 1 0.0 23.3653653941 21.3 0.0 0 0 0
274 80 1 0.0 22.1356093207 22.01 0.0 0 0 0
275 80 1 0.0 22.1356093207 23.43 0.0 0 0 0
276 67 1 0.0 24.5951214675 19.17 0.0 0 0 0
277 67 1 0.0 25.8248775409 19.88 0.0 0 0 0
278 68 1 0.0 27.0546336142 19.17 0.0 0 0 0
279 68 1 0.0 28.2843896876 19.88 0.0 0 0 0
280 69 1 0.0 29.514145761 19.17 0.0 0 0 0
281 81 1 0.0 25.8248775409 21.3 0.0 0 0 0
282 81 1 0.0 24.5951214675 22.01 0.0 0 0 0
283 81 1 0.0 24.5951214675 23.43 0.0 0 0 0
284 82 1 0.0 28.2843896876 21.3 0.0 0 0 0
285 82 1 0.0 27.0546336142 22.01 0.0 0 0 0
286 82 1 0.0 27.0546336142 23.43 0.0 0 0 0
287 83 1 0.0 29.514145761 22.01 0.0 0 0 0
288 83 1 0.0 29.514145761 23.43 0.0 0 0 0
289 71 1 0.0 1.2297560734 24.14 0.0 0 0 0
290 72 1 0.0 3.6892682201 24.14 0.0 0 0 0
291 85 1 0.0 1.2297560734 25.56 0.0 0 0 0
292 85 1 0.0 0.0 26.27 0.0 0 0 0
293 85 1 0.0 0.0 27.69 0.0 0 0 0
294 85 1 0.0 1.2297560734 28.4 0.0 0 0 0
295 86 1 0.0 3.6892682201 25.56 0.0 0 0 0
296 86 1 0.0 2.4595121467 26.27 0.0 0 0 0
297 86 1 0.0 2.4595121467 27.69 0.0 0 0 0
298 86 1 0.0 3.6892682201 28.4 0.0 0 0 0
299 87 1 0.0 4.9190242935 26.27 0.0 0 0 0
300 87 1 0.0 4.9190242935 27.69 0.0 0 0 0
301 99 1 0.0 1.2297560734 29.82 0.0 0 0 0
302 100 1 0.0 3.6892682201 29.82 0.0 0 0 0
303 73 1 0.0 6.1487803669 24.14 0.0 0 0 0
304 74 1 0.0 8.6082925136 24.14 0.0 0 0 0
305 75 1 0.0 11.0678046604 24.14 0.0 0 0 0
306 87 1 0.0 6.1487803669 25.56 0.0 0 0 0
307 87 1 0.0 6.1487803669 28.4 0.0 0 0 0
308 88 1 0.0 8.6082925136 25.56 0.0 0 0 0
309 88 1 0.0 7.3785364402 26.27 0.0 0 0 0
310 88 1 0.0 7.3785364402 27.69 0.0 0 0 0
311 88 1 0.0 8.6082925136 28.4 0.0 0 0 0
312 89 1 0.0 11.0678046604 25.56 0.0 0 0 0
313 89 1 0.0 9.838048587 26.27 0.0 0 0 0
314 89 1 0.0 9.838048587 27.69 0.0 0 0 0
315 89 1 0.0 11.0678046604 28.4 0.0 0 0 0
316 101 1 0.0 6.1487803669 29.82 0.0 0 0 0
317 102 1 0.0 8.6082925136 29.82 0.0 0 0 0
318 103 1 0.0 11.0678046604 29.82 0.0 0 0 0
319 76 1 0.0 13.5273168071 24.14 0.0 0 0 0
320 77 1 0.0 15.9868289539 24.14 0.0 0 0 0
321 90 1 0.0 13.5273168071 25.56 0.0 0 0 0
322 90 1 0.0 12.2975607337 26.27 0.0 0 0 0
323 90 1 0.0 12.2975607337 27.69 0.0 0 0 0
324 90 1 0.0 13.5273168071 28.4 0.0 0 0 0
325 91 1 0.0 15.9868289539 25.56 0.0 0 0 0
326 91 1 0.0 14.7570728805 26.27 0.0 0 0 0
327 91 1 0.0 14.7570728805 27.69 0.0 0 0 0
328 91 1 0.0 15.9868289539 28.4 0.0 0 0 0
329 92 1 0.0 17.2165850272 26.27 0.0 0 0 0
330 92 1 0.0 17.2165850272 27.69 0.0 0 0 0
331 104 1 0.0 13.5273168071 29.82 0.0 0 0 0
332 105 1 0.0 15.9868289539 29.82 0.0 0 0 0
333 78 1 0.0 18.4463411006 24.14 0.0 0 0 0
334 79 1 0.0 20.9058532474 24.14 0.0 0 0 0
335 80 1 0.0 23.3653653941 24.14 0.0 0 0 0
336 92 1 0.0 18.4463411006 25.56 0.0 0 0 0
337 92 1 0.0 18.4463411006 28.4 0.0 0 0 0
338 93 1 0.0 20.9058532474 25.56 0.0 0 0 0
339 93 1 0.0 19.676097174 26.27 0.0 0 0 0
340 93 1 0.0 19.676097174 27.69 0.0 0 0 0
341 93 1 0.0 20.9058532474 28.4 0.0 0 0 0
342 94 1 0.0 23.3653653941 25.56 0.0 0 0 0
343 94 1 0.0 22.1356093207 26.27 0.0 0 0 0
344 94 1 0.0 22.1356093207 27.69 0.0 0 0 0
345 94 1 0.0 23.3653653941 28.4 0.0 0 0 0
346 106 1 0.0 18.4463411006 29.82 0.0 0 0 0
347 107 1 0.0 20.9058532474 29.82 0.0 0 0 0
348 108 1 0.0 23.3653653941 29.82 0.0 0 0 0
349 81 1 0.0 25.8248775409 24.14 0.0 0 0 0
350 82 1 0.0 28.2843896876 24.14 0.0 0 0 0
351 95 1 0.0 25.8248775409 25.56 0.0 0 0 0
352 95 1 0.0 24.5951214675 26.27 0.0 0 0 0
353 95 1 0.0 24.5951214675 27.69 0.0 0 0 0
354 95 1 0.0 25.8248775409 28.4 0.0 0 0 0
355 96 1 0.0 28.2843896876 25.56 0.0 0 0 0
356 96 1 0.0 27.0546336142 26.27 0.0 0 0 0
357 96 1 0.0 27.0546336142 27.69 0.0 0 0 0
358 96 1 0.0 28.2843896876 28.4 0.0 0 0 0
359 97 1 0.0 29.514145761 26.27 0.0 0 0 0
360 97 1 0.0 29.514145761 27.69 0.0 0 0 0
361 109 1 0.0 25.8248775409 29.82 0.0 0 0 0
362 110 1 0.0 28.2843896876 29.82 0.0 0 0 0
363 111 1 0.0 1.2297560734 0.0 40.0 0 0 0
364 111 1 0.0 0.0 0.71 40.0 0 0 0
365 111 1 0.0 0.0 2.13 40.0 0 0 0
366 111 1 0.0 1.2297560734 2.84 40.0 0 0 0
367 112 1 0.0 3.6892682201 0.0 40.0 0 0 0
368 112 1 0.0 2.4595121467 0.71 40.0 0 0 0
369 112 1 0.0 2.4595121467 2.13 40.0 0 0 0
370 112 1 0.0 3.6892682201 2.84 40.0 0 0 0
371 113 1 0.0 4.9190242935 0.71 40.0 0 0 0
372 113 1 0.0 4.9190242935 2.13 40.0 0 0 0
373 125 1 0.0 1.2297560734 4.26 40.0 0 0 0
374 125 1 0.0 0.0 4.97 40.0 0 0 0
375 126 1 0.0 3.6892682201 4.26 40.0 0 0 0
376 126 1 0.0 2.4595121467 4.97 40.0 0 0 0
377 127 1 0.0 4.9190242935 4.97 40.0 0 0 0
378 113 1 0.0 6.1487803669 0.0 40.0 0 0 0
379 113 1 0.0 6.1487803669 2.84 40.0 0 0 0
380 114 1 0.0 8.6082925136 0.0 40.0 0 0 0
381 114 1 0.0 7.3785364402 0.71 40.0 0 0 0
382 114 1 0.0 7.3785364402 2.13 40.0 0 0 0
383 114 1 0.0 8.6082925136 2.84 40.0 0 0 0
384 115 1 0.0 11.0678046604 0.0 40.0 0 0 0
385 115 1 0.0 9.838048587 0.71 40.0 0 0 0
386 115 1 0.0 9.838048587 2.13 40.0 0 0 0
387 115 1 0.0 11.0678046604 2.84 40.0 0 0 0
388 127 1 0.0 6.1487803669 4.26 40.0 0 0 0
389 128 1 0.0 8.6082925136 4.26 40.0 0 0 0
390 128 1 0.0 7.3785364402 4.97 40.0 0 0 0
391 129 1 0.0 11.0678046604 4.26 40.0 0 0 0
392 129 1 0.0 9.838048587 4.97 40.0 0 0 0
393 116 1 0.0 13.5273168071 0.0 40.0 0 0 0
394 116 1 0.0 12.2975607337 0.71 40.0 0 0 0
395 116 1 0.0 12.2975607337 2.13 40.0 0 0 0
396 116 1 0.0 13.5273168071 2.84 40.0 0 0 0
397 117 1 0.0 15.9868289539 0.0 40.0 0 0 0
398 117 1 0.0 14.7570728805 0.71 40.0 0 0 0
399 117 1 0.0 14.7570728805 2.13 40.0 0 0 0
400 117 1 0.0 15.9868289539 2.84 40.0 0 0 0
401 118 1 0.0 17.2165850272 0.71 40.0 0 0 0
402 118 1 0.0 17.2165850272 2.13 40.0 0 0 0
403 130 1 0.0 13.5273168071 4.26 40.0 0 0 0
404 130 1 0.0 12.2975607337 4.97 40.0 0 0 0
405 131 1 0.0 15.9868289539 4.26 40.0 0 0 0
406 131 1 0.0 14.7570728805 4.97 40.0 0 0 0
407 132 1 0.0 17.2165850272 4.97 40.0 0 0 0
408 118 1 0.0 18.4463411006 0.0 40.0 0 0 0
409 118 1 0.0 18.4463411006 2.84 40.0 0 0 0
410 119 1 0.0 20.9058532474 0.0 40.0 0 0 0
411 119 1 0.0 19.676097174 0.71 40.0 0 0 0
412 119 1 0.0 19.676097174 2.13 40.0 0 0 0
413 119 1 0.0 20.9058532474 2.84 40.0 0 0 0
414 120 1 0.0 23.3653653941 0.0 40.0 0 0 0
415 120 1 0.0 22.1356093207 0.71 40.0 0 0 0
416 120 1 0.0 22.1356093207 2.13 40.0 0 0 0
417 120 1 0.0 23.3653653941 2.84 40.0 0 0 0
418 132 1 0.0 18.4463411006 4.26 40.0 0 0 0
419 133 1 0.0 20.9058532474 4.26 40.0 0 0 0
420 133 1 0.0 19.676097174 4.97 40.0 0 0 0
421 134 1 0.0 23.3653653941 4.26 40.0 0 0 0
422 134 1 0.0 22.1356093207 4.97 40.0 0 0 0
423 121 1 0.0 25.8248775409 0.0 40.0 0 0 0
424 121 1 0.0 24.5951214675 0.71 40.0 0 0 0
425 121 1 0.0 24.5951214675 2.13 40.0 0 0 0
426 121 1 0.0 25.8248775409 2.84 40.0 0 0 0
427 122 1 0.0 28.2843896876 0.0 40.0 0 0 0
428 122 1 0.0 27.0546336142 0.71 40.0 0 0 0
429 122 1 0.0 27.0546336142 2.13 40.0 0 0 0
430 122 1 0.0 28.2843896876 2.84 40.0 0 0 0
431 123 1 0.0 29.514145761 0.71 40.0 0 0 0
432 123 1 0.0 29.514145761 2.13 40.0 0 0 0
433 135 1 0.0 25.8248775409 4.26 40.0 0 0 0
434 135 1 0.0 24.5951214675 4.97 40.0 0 0 0
435 136 1 0.0 28.2843896876 4.26 40.0 0 0 0
436 136 1 0.0 27.0546336142 4.97 40.0 0 0 0
437 137 1 0.0 29.514145761 4.97 40.0 0 0 0
438 125 1 0.0 0.0 6.39 40.0 0 0 0
439 125 1 0.0 1.2297560734 7.1 40.0 0 0 0
440 126 1 0.0 2.4595121467 6.39 40.0 0 0 0
441 126 1 0.0 3.6892682201 7.1 40.0 0 0 0
442 127 1 0.0 4.9190242935 6.39 40.0 0 0 0
443 139 1 0.0 1.2297560734 8.52 40.0 0 0 0
444 139 1 0.0 0.0 9.23 40.0 0 0 0
445 139 1 0.0 0.0 10.65 40.0 0 0 0
446 139 1 0.0 1.2297560734 11.36 40.0 0 0 0
447 140 1 0.0 3.6892682201 8.52 40.0 0 0 0
448 140 1 0.0 2.4595121467 9.23 40.0 0 0 0
449 140 1 0.0 2.4595121467 10.65 40.0 0 0 0
450 140 1 0.0 3.6892682201 11.36 40.0 0 0 0
451 141 1 0.0 4.9190242935 9.23 40.0 0 0 0
452 141 1 0.0 4.9190242935 10.65 40.0 0 0 0
453 127 1 0.0 6.1487803669 7.1 40.0 0 0 0
454 128 1 0.0 7.3785364402 6.39 40.0 0 0 0
455 128 1 0.0 8.6082925136 7.1 40.0 0 0 0
456 129 1 0.0 9.838048587 6.39 40.0 0 0 0
457 129 1 0.0 11.0678046604 7.1 40.0 0 0 0
458 141 1 0.0 6.1487803669 8.52 40.0 0 0 0
459 141 1 0.0 6.1487803669 11.36 40.0 0 0 0
460 142 1 0.0 8.6082925136 8.52 40.0 0 0 0
461 142 1 0.0 7.3785364402 9.23 40.0 0 0 0
462 142 1 0.0 7.3785364402 10.65 40.0 0 0 0
463 142 1 0.0 8.6082925136 11.36 40.0 0 0 0
464 143 1 0.0 11.0678046604 8.52 40.0 0 0 0
465 143 1 0.0 9.838048587 9.23 40.0 0 0 0
466 143 1 0.0 9.838048587 10.65 40.0 0 0 0
467 143 1 0.0 11.0678046604 11.36 40.0 0 0 0
468 130 1 0.0 12.2975607337 6.39 40.0 0 0 0
469 130 1 0.0 13.5273168071 7.1 40.0 0 0 0
470 131 1 0.0 14.7570728805 6.39 40.0 0 0 0
471 131 1 0.0 15.9868289539 7.1 40.0 0 0 0
472 132 1 0.0 17.2165850272 6.39 40.0 0 0 0
473 144 1 0.0 13.5273168071 8.52 40.0 0 0 0
474 144 1 0.0 12.2975607337 9.23 40.0 0 0 0
475 144 1 0.0 12.2975607337 10.65 40.0 0 0 0
476 144 1 0.0 13.5273168071 11.36 40.0 0 0 0
477 145 1 0.0 15.9868289539 8.52 40.0 0 0 0
478 145 1 0.0 14.7570728805 9.23 40.0 0 0 0
479 145 1 0.0 14.7570728805 10.65 40.0 0 0 0
480 145 1 0.0 15.9868289539 11.36 40.0 0 0 0
481 146 1 0.0 17.2165850272 9.23 40.0 0 0 0
482 146 1 0.0 17.2165850272 10.65 40.0 0 0 0
483 132 1 0.0 18.4463411006 7.1 40.0 0 0 0
484 133 1 0.0 19.676097174 6.39 40.0 0 0 0
485 133 1 0.0 20.9058532474 7.1 40.0 0 0 0
486 134 1 0.0 22.1356093207 6.39 40.0 0 0 0
487 134 1 0.0 23.3653653941 7.1 40.0 0 0 0
488 146 1 0.0 18.4463411006 8.52 40.0 0 0 0
489 146 1 0.0 18.4463411006 11.36 40.0 0 0 0
490 147 1 0.0 20.9058532474 8.52 40.0 0 0 0
491 147 1 0.0 19.676097174 9.23 40.0 0 0 0
492 147 1 0.0 19.676097174 10.65 40.0 0 0 0
493 147 1 0.0 20.9058532474 11.36 40.0 0 0 0
494 148 1 0.0 23.3653653941 8.52 40.0 0 0 0
495 148 1 0.0 22.1356093207 9.23 40.0 0 0 0
496 148 1 0.0 22.1356093207 10.65 40.0 0 0 0
497 148 1 0.0 23.3653653941 11.36 40.0 0 0 0
498 135 1 0.0 24.5951214675 6.39 40.0 0 0 0
499 135 1 0.0 25.8248775409 7.1 40.0 0 0 0
500 136 1 0.0 27.0546336142 6.39 40.0 0 0 0
501 136 1 0.0 28.2843896876 7.1 40.0 0 0 0
502 137 1 0.0 29.514145761 6.39 40.0 0 0 0
503 149 1 0.0 25.8248775409 8.52 40.0 0 0 0
504 149 1 0.0 24.5951214675 9.23 40.0 0 0 0
505 149 1 0.0 24.5951214675 10.65 40.0 0 0 0
506 149 1 0.0 25.8248775409 11.36 40.0 0 0 0
507 150 1 0.0 28.2843896876 8.52 40.0 0 0 0
508 150 1 0.0 27.0546336142 9.23 40.0 0 0 0
509 150 1 0.0 27.0546336142 10.65 40.0 0 0 0
510 150 1 0.0 28.2843896876 11.36 40.0 0 0 0
511 151 1 0.0 29.514145761 9.23 40.0 0 0 0
512 151 1 0.0 29.514145761 10.65 40.0 0 0 0
513 153 1 0.0 1.2297560734 12.78 40.0 0 0 0
514 153 1 0.0 0.0 13.49 40.0 0 0 0
515 153 1 0.0 0.0 14.91 40.0 0 0 0
516 153 1 0.0 1.2297560734 15.62 40.0 0 0 0
517 154 1 0.0 3.6892682201 12.78 40.0 0 0 0
518 154 1 0.0 2.4595121467 13.49 40.0 0 0 0
519 154 1 0.0 2.4595121467 14.91 40.0 0 0 0
520 154 1 0.0 3.6892682201 15.62 40.0 0 0 0
521 155 1 0.0 4.9190242935 13.49 40.0 0 0 0
522 155 1 0.0 4.9190242935 14.91 40.0 0 0 0
523 167 1 0.0 1.2297560734 17.04 40.0 0 0 0
524 167 1 0.0 0.0 17.75 40.0 0 0 0
525 168 1 0.0 3.6892682201 17.04 40.0 0 0 0
526 168 1 0.0 2.4595121467 17.75 40.0 0 0 0
527 169 1 0.0 4.9190242935 17.75 40.0 0 0 0
528 155 1 0.0 6.1487803669 12.78 40.0 0 0 0
529 155 1 0.0 6.1487803669 15.62 40.0 0 0 0
530 156 1 0.0 8.6082925136 12.78 40.0 0 0 0
531 156 1 0.0 7.3785364402 13.49 40.0 0 0 0
532 156 1 0.0 7.3785364402 14.91 40.0 0 0 0
533 156 1 0.0 8.6082925136 15.62 40.0 0 0 0
534 157 1 0.0 11.0678046604 12.78 40.0 0 0 0
535 157 1 0.0 9.838048587 13.49 40.0 0 0 0
536 157 1 0.0 9.838048587 14.91 40.0 0 0 0
537 157 1 0.0 11.0678046604 15.62 40.0 0 0 0
538 169 1 0.0 6.1487803669 17.04 40.0 0 0 0
539 170 1 0.0 8.6082925136 17.04 40.0 0 0 0
540 170 1 0.0 7.3785364402 17.75 40.0 0 0 0
541 171 1 0.0 11.0678046604 17.04 40.0 0 0 0
542 171 1 0.0 9.838048587 17.75 40.0 0 0 0
543 158 1 0.0 13.5273168071 12.78 40.0 0 0 0
544 158 1 0.0 12.2975607337 13.49 40.0 0 0 0
545 158 1 0.0 12.2975607337 14.91 40.0 0 0 0
546 158 1 0.0 13.5273168071 15.62 40.0 0 0 0
547 159 1 0.0 15.9868289539 12.78 40.0 0 0 0
548 159 1 0.0 14.7570728805 13.49 40.0 0 0 0
549 159 1 0.0 14.7570728805 14.91 40.0 0 0 0
550 159 1 0.0 15.9868289539 15.62 40.0 0 0 0
551 160 1 0.0 17.2165850272 13.49 40.0 0 0 0
552 160 1 0.0 17.2165850272 14.91 40.0 0 0 0
553 172 1 0.0 13.5273168071 17.04 40.0 0 0 0
554 172 1 0.0 12.2975607337 17.75 40.0 0 0 0
555 173 1 0.0 15.9868289539 17.04 40.0 0 0 0
556 173 1 0.0 14.7570728805 17.75 40.0 0 0 0
557 174 1 0.0 17.2165850272 17.75 40.0 0 0 0
558 160 1 0.0 18.4463411006 12.78 40.0 0 0 0
559 160 1 0.0 18.4463411006 15.62 40.0 0 0 0
560 161 1 0.0 20.9058532474 12.78 40.0 0 0 0
561 161 1 0.0 19.676097174 13.49 40.0 0 0 0
562 161 1 0.0 19.676097174 14.91 40.0 0 0 0
563 161 1 0.0 20.9058532474 15.62 40.0 0 0 0
564 162 1 0.0 23.3653653941 12.78 40.0 0 0 0
565 162 1 0.0 22.1356093207 13.49 40.0 0 0 0
566 162 1 0.0 22.1356093207 14.91 40.0 0 0 0
567 162 1 0.0 23.3653653941 15.62 40.0 0 0 0
568 174 1 0.0 18.4463411006 17.04 40.0 0 0 0
569 175 1 0.0 20.9058532474 17.04 40.0 0 0 0
570 175 1 0.0 19.676097174 17.75 40.0 0 0 0
571 176 1 0.0 23.3653653941 17.04 40.0 0 0 0
572 176 1 0.0 22.1356093207 17.75 40.0 0 0 0
573 163 1 0.0 25.8248775409 12.78 40.0 0 0 0
574 163 1 0.0 24.5951214675 13.49 40.0 0 0 0
575 163 1 0.0 24.5951214675 14.91 40.0 0 0 0
576 163 1 0.0 25.8248775409 15.62 40.0 0 0 0
577 164 1 0.0 28.2843896876 12.78 40.0 0 0 0
578 164 1 0.0 27.0546336142 13.49 40.0 0 0 0
579 164 1 0.0 27.0546336142 14.91 40.0 0 0 0
580 164 1 0.0 28.2843896876 15.62 40.0 0 0 0
581 165 1 0.0 29.514145761 13.49 40.0 0 0 0
582 165 1 0.0 29.514145761 14.91 40.0 0 0 0
583 177 1 0.0 25.8248775409 17.04 40.0 0 0 0
584 177 1 0.0 24.5951214675 17.75 40.0 0 0 0
585 178 1 0.0 28.2843896876 17.04 40.0 0 0 0
586 178 1 0.0 27.0546336142 17.75 40.0 0 0 0
587 179 1 0.0 29.514145761 17.75 40.0 0 0 0
588 167 1 0.0 0.0 19.17 40.0 0 0 0
589 167 1 0.0 1.2297560734 19.88 40.0 0 0 0
590 168 1 0.0 2.4595121467 19.17 40.0 0 0 0
591 168 1 0.0 3.6892682201 19.88 40.0 0 0 0
592 169 1 0.0 4.9190242935 19.17 40.0 0 0 0
593 181 1 0.0 1.2297560734 21.3 40.0 0 0 0
594 181 1 0.0 0.0 22.01 40.0 0 0 0
595 181 1 0.0 0.0 23.43 40.0 0 0 0
596 182 1 0.0 3.6892682201 21.3 40.0 0 0 0
597 182 1 0.0 2.4595121467 22.01 40.0 0 0 0
598 182 1 0.0 2.4595121467 23.43 40.0 0 0 0
599 183 1 0.0 4.9190242935 22.01 40.0 0 0 0
600 183 1 0.0 4.9190242935 23.43 40.0 0 0 0
601 169 1 0.0 6.1487803669 19.88 40.0 0 0 0
602 170 1 0.0 7.3785364402 19.17 40.0 0 0 0
603 170 1 0.0 8.6082925136 19.88 40.0 0 0 0
604 171 1 0.0 9.838048587 19.17 40.0 0 0 0
605 171 1 0.0 11.0678046604 19.88 40.0 0 0 0
606 183 1 0.0 6.1487803669 21.3 40.0 0 0 0
607 184 1 0.0 8.6082925136 21.3 40.0 0 0 0
608 184 1 0.0 7.3785364402 22.01 40.0 0 0 0
609 184 1 0.0 7.3785364402 23.43 40.0 0 0 0
610 185 1 0.0 11.0678046604 21.3 40.0 0 0 0
611 185 1 0.0 9.838048587 22.01 40.0 0 0 0
612 185 1 0.0 9.838048587 23.43 40.0 0 0 0
613 172 1 0.0 12.2975607337 19.17 40.0 0 0 0
614 172 1 0.0 13.5273168071 19.88 40.0 0 0 0
615 173 1 0.0 14.7570728805 19.17 40.0 0 0 0
616 173 1 0.0 15.9868289539 19.88 40.0 0 0 0
617 174 1 0.0 17.2165850272 19.17 40.0 0 0 0
618 186 1 0.0 13.5273168071 21.3 40.0 0 0 0
619 186 1 0.0 12.2975607337 22.01 40.0 0 0 0
620 186 1 0.0 12.2975607337 23.43 40.0 0 0 0
621 187 1 0.0 15.9868289539 21.3 40.0 0 0 0
622 187 1 0.0 14.7570728805 22.01 40.0 0 0 0
623 187 1 0.0 14.7570728805 23.43 40.0 0 0 0
624 188 1 0.0 17.2165850272 22.01 40.0 0 0 0
625 188 1 0.0 17.2165850272 23.43 40.0 0 0 0
626 174 1 0.0 18.4463411006 19.88 40.0 0 0 0
627 175 1 0.0 19.676097174 19.17 40.0 0 0 0
628 175 1 0.0 20.9058532474 19.88 40.0 0 0 0
629 176 1 0.0 22.1356093207 19.17 40.0 0 0 0
630 176 1 0.0 23.3653653941 19.88 40.0 0 0 0
631 188 1 0.0 18.4463411006 21.3 40.0 0 0 0
632 189 1 0.0 20.9058532474 21.3 40.0 0 0 0
633 189 1 0.0 19.676097174 22.01 40.0 0 0 0
634 189 1 0.0 19.676097174 23.43 40.0 0 0 0
635 190 1 0.0 23.3653653941 21.3 40.0 0 0 0
636 190 1 0.0 22.1356093207 22.01 40.0 0 0 0
637 190 1 0.0 22.1356093207 23.43 40.0 0 0 0
638 177 1 0.0 24.5951214675 19.17 40.0 0 0 0
639 177 1 0.0 25.8248775409 19.88 40.0 0 0 0
640 178 1 0.0 27.0546336142 19.17 40.0 0 0 0
641 178 1 0.0 28.2843896876 19.88 40.0 0 0 0
642 179 1 0.0 29.514145761 19.17 40.0 0 0 0
643 191 1 0.0 25.8248775409 21.3 40.0 0 0 0
644 191 1 0.0 24.5951214675 22.01 40.0 0 0 0
645 191 1 0.0 24.5951214675 23.43 40.0 0 0 0
646 192 1 0.0 28.2843896876 21.3 40.0 0 0 0
647 192 1 0.0 27.0546336142 22.01 40.0 0 0 0
648 192 1 0.0 27.0546336142 23.43 40.0 0 0 0
649 193 1 0.0 29.514145761 22.01 40.0 0 0 0
650 193 1 0.0 29.514145761 23.43 40.0 0 0 0
651 181 1 0.0 1.2297560734 24.14 40.0 0 0 0
652 182 1 0.0 3.6892682201 24.14 40.0 0 0 0
653 195 1 0.0 1.2297560734 25.56 40.0 0 0 0
654 195 1 0.0 0.0 26.27 40.0 0 0 0
655 195 1 0.0 0.0 27.69 40.0 0 0 0
656 195 1 0.0 1.2297560734 28.4 40.0 0 0 0
657 196 1 0.0 3.6892682201 25.56 40.0 0 0 0
658 196 1 0.0 2.4595121467 26.27 40.0 0 0 0
659 196 1 0.0 2.4595121467 27.69 40.0 0 0 0
660 196 1 0.0 3.6892682201 28.4 40.0 0 0 0
661 197 1 0.0 4.9190242935 26.27 40.0 0 0 0
662 197 1 0.0 4.9190242935 27.69 40.0 0 0 0
663 209 1 0.0 1.2297560734 29.82 40.0 0 0 0
664 210 1 0.0 3.6892682201 29.82 40.0 0 0 0
665 183 1 0.0 6.1487803669 24.14 40.0 0 0 0
666 184 1 0.0 8.6082925136 24.14 40.0 0 0 0
667 185 1 0.0 11.0678046604 24.14 40.0 0 0 0
668 197 1 0.0 6.1487803669 25.56 40.0 0 0 0
669 197 1 0.0 6.1487803669 28.4 40.0 0 0 0
670 198 1 0.0 8.6082925136 25.56 40.0 0 0 0
671 198 1 0.0 7.3785364402 26.27 40.0 0 0 0
672 198 1 0.0 7.3785364402 27.69 40.0 0 0 0
673 198 1 0.0 8.6082925136 28.4 40.0 0 0 0
674 199 1 0.0 11.0678046604 25.56 40.0 0 0 0
675 199 1 0.0 9.838048587 26.27 40.0 0 0 0
676 199 1 0.0 9.838048587 27.69 40.0 0 0 0
677 199 1 0.0 11.0678046604 28.4 40.0 0 0 0
678 211 1 0.0 6.1487803669 29.82 40.0 0 0 0
679 212 1 0.0 8.6082925136 29.82 40.0 0 0 0
680 213 1 0.0 11.0678046604 29.82 40.0 0 0 0
681 186 1 0.0 13.5273168071 24.14 40.0 0 0 0
682 187 1 0.0 15.9868289539 24.14 40.0 0 0 0
683 200 1 0.0 13.5273168071 25.56 40.0 0 0 0
684 200 1 0.0 12.2975607337 26.27 40.0 0 0 0
685 200 1 0.0 12.2975607337 27.69 40.0 0 0 0
686 200 1 0.0 13.5273168071 28.4 40.0 0 0 0
687 201 1 0.0 15.9868289539 25.56 40.0 0 0 0