# LAMMPS data file written by OVITO Pro 3.7.4
1224 atoms
1122 bonds
1020 angles
918 dihedrals
1 atom types
1 bond types
1 angle types
1 dihedral types
0.0 30.0 xlo xhi
0.0 30.0 ylo yhi
0.0 55.0 zlo zhi

Atoms  # full

1 44 1 0.0 2.036458573 4.2586267557 3.8953925607 1 0 0
2 43 1 0.0 5.0012521857 3.3275510174 2.9236364771 1 0 0
3 44 1 0.0 5.796313614 3.1208187658 6.0379155546 1 0 0
4 37 1 0.0 2.4946736578 0.9943534387 3.0558294006 1 0 0
5 43 1 0.0 8.2078424345 1.6561801744 4.3608905067 1 0 0
6 25 1 0.0 7.4286337168 5.2812499851 3.2361000923 1 0 0
7 25 1 0.0 10.9533730237 3.0415393162 3.0017924661 1 0 0
8 43 1 0.0 10.9680408207 3.8588565731 6.40518762 1 0 0
9 38 1 0.0 10.8520510524 0.5986420783 6.3600111314 1 0 0
10 7 1 0.0 14.8699008694 4.5425469823 3.1519273711 0 0 0
11 25 1 0.0 13.4281152357 2.072687853 4.9446998091 1 0 0
12 2 1 0.0 14.9653440138 29.3029120963 3.434806459 0 -1 0
13 7 1 0.0 17.3057319554 1.8066054417 3.1575869968 0 0 0
14 43 1 0.0 20.9609981012 4.4254765901 5.9573554007 1 0 0
15 19 1 0.0 21.0157968544 1.3042430755 3.1230343085 0 0 0
16 26 1 0.0 22.1049783406 4.3032357933 2.9645531951 0 0 0
17 26 1 0.0 22.9781174591 1.6741981785 5.8639396452 0 0 0
18 26 1 0.0 28.1103232784 5.6580996903 3.056970537 0 0 0
19 26 1 0.0 28.7475063099 2.526190869 3.191190694 0 0 0
20 26 1 0.0 0.7678182953 1.4476474274 5.6986904772 1 0 0
21 19 1 0.0 24.8470300608 2.7349545243 3.0274881396 0 0 0
22 7 1 0.0 24.5442264585 4.5930068208 5.9927345269 0 0 0
23 7 1 0.0 0.1165690062 8.202186706 3.1123692152 1 0 0
24 13 1 0.0 2.7014804375 10.2620215068 3.1610953547 0 0 0
25 43 1 0.0 4.9052307702 7.499300031 3.0362602391 1 0 0
26 32 1 0.0 5.680341499 11.2917075223 3.2227008698 1 0 0
27 26 1 0.0 2.4264959617 7.3146258618 5.2564131291 1 0 0
28 43 1 0.0 6.0965532442 9.2327579479 5.7242965729 1 0 0
29 32 1 0.0 8.3016464134 8.5799780768 3.1350129182 1 0 0
30 13 1 0.0 9.046898253 11.7879418324 3.0096885312 0 0 0
31 44 1 0.0 9.7083926976 8.9116234985 6.2516955565 1 0 0
32 8 1 0.0 10.8077584837 6.3649115728 3.2933930746 0 0 0
33 32 1 0.0 11.676715601 10.0400618374 3.2724218784 1 0 0
34 13 1 0.0 11.4774468791 11.847365623 6.0597043508 0 0 0
35 43 1 0.0 18.2768727985 4.9891167371 3.0599513066 1 0 0
36 43 1 0.0 12.7260974436 7.7588963767 5.6050404652 1 0 0
37 43 1 0.0 15.2118470282 7.9542090716 3.0409662849 1 0 0
38 50 1 0.0 16.8082445677 11.7362571519 3.0671990583 1 0 0
39 50 1 0.0 17.7153364892 10.1751434482 5.5635225206 1 0 0
40 8 1 0.0 15.8907997872 7.5855263135 6.2928521149 0 0 0
41 26 1 0.0 21.0300891094 7.2035065467 3.2840267971 0 0 0
42 31 1 0.0 20.8831655235 11.4703868386 3.1213067362 0 0 0
43 26 1 0.0 19.1058417878 7.2480162014 5.3509619736 0 0 0
44 7 1 0.0 23.5272560393 9.3765189487 3.2828942281 0 0 0
45 7 1 0.0 20.9481667285 9.8470301227 6.2405229235 0 0 0
46 7 1 0.0 24.8110296818 6.2318816098 3.1077726617 0 0 0
47 25 1 0.0 29.7329942274 11.602851612 3.2862409658 0 0 0
48 25 1 0.0 26.9125487538 9.0602095777 3.0573848082 0 0 0
49 25 1 0.0 25.3593096315 7.8231884038 5.9436479078 0 0 0
50 31 1 0.0 26.5340244478 11.7433401516 5.6200845455 0 0 0
51 13 1 0.0 3.7277751149 14.0311098158 3.1973082547 0 0 0
52 31 1 0.0 0.5333971812 14.8194747348 3.1182624365 1 0 0
53 31 1 0.0 2.2078919605 13.5583228099 6.0780935021 1 0 0
54 49 1 0.0 4.7388694493 17.4801828647 5.3072379905 1 0 0
55 49 1 0.0 2.2607863571 18.2941595126 3.276053896 1 0 0
56 50 1 0.0 8.0277366897 12.0207241796 5.9707358873 1 0 0
57 32 1 0.0 10.9195785385 14.2324160802 3.1987758334 1 0 0
58 13 1 0.0 7.2136871982 14.5936815455 2.9997659167 0 0 0
59 50 1 0.0 7.9710726712 16.2938147758 5.7912292786 1 0 0
60 14 1 0.0 13.7668507795 12.7275677524 3.5514807138 0 0 0
61 14 1 0.0 12.9680777539 16.6124865255 3.0670029639 0 0 0
62 50 1 0.0 15.8772141385 15.1700241264 3.7397652428 1 0 0
63 31 1 0.0 18.869537299 14.3789448279 3.020960404 0 0 0
64 13 1 0.0 17.9445762719 17.6779183051 2.988640395 0 0 0
65 14 1 0.0 19.8239996325 12.9944727713 5.854644723 0 0 0
66 13 1 0.0 21.7794022029 14.9092478126 3.9426160765 0 0 0
67 25 1 0.0 24.2947593274 12.6254800995 3.121348848 0 0 0
68 31 1 0.0 21.2010884587 17.9272422904 3.2328755796 0 0 0
69 14 1 0.0 19.1013504786 16.4768333552 5.7666404051 0 0 0
70 13 1 0.0 22.2105563333 15.7276201301 6.7040964322 0 0 0
71 49 1 0.0 28.8904577175 14.004182608 6.0128621269 0 0 0
72 31 1 0.0 28.8652622349 17.5306426094 3.4557432946 0 0 0
73 49 1 0.0 25.4984553922 15.4394137569 5.4717348714 0 0 0
74 31 1 0.0 27.3012108162 14.0655120968 3.0508073672 0 0 0
75 31 1 0.0 25.3313772595 17.7441449716 3.0876785616 0 0 0
76 49 1 0.0 1.7694928482 21.8745531635 3.4143415157 1 0 0
77 37 1 0.0 5.1400073276 21.7181806843 3.0057452868 1 -1 0
78 1 1 0.0 4.1728943442 21.1682765271 5.9139728725 0 -1 0
79 37 1 0.0 6.9989059796 19.276161237 3.3465453005 1 -1 0
80 37 1 0.0 9.8619213665 20.5668264107 3.1693201185 1 -1 0
81 39 1 0.0 6.0247717331 23.7965231441 5.8734371694 1 -1 0
82 38 1 0.0 9.206708125 23.3970600394 5.2731700327 1 -1 0
83 14 1 0.0 11.4153159395 18.8380237359 5.7978500436 0 0 0
84 13 1 0.0 14.6758590569 18.2851523625 5.4101026271 0 0 0
85 1 1 0.0 12.3831365114 23.0388102759 3.3880687352 0 -1 0
86 1 1 0.0 13.8137316038 22.0968035229 5.2275353777 0 -1 0
87 39 1 0.0 13.02301424 19.8264094726 2.9936131745 1 -1 0
88 39 1 0.0 15.9776731121 20.6429885331 3.298165288 1 -1 0
89 20 1 0.0 19.2996680674 24.0847349405 3.0438620691 0 -1 0
90 20 1 0.0 24.2296229655 25.5962919181 3.0487025792 0 -1 0
91 20 1 0.0 24.5929210479 22.5588962311 4.3223948399 0 -1 0
92 13 1 0.0 21.8606445477 21.1009290634 3.1693710768 0 0 0
93 2 1 0.0 18.645960838 21.5807496666 5.0703856532 0 -1 0
94 19 1 0.0 29.4892250904 23.0182864569 5.5244115195 0 -1 0
95 20 1 0.0 28.3992565987 21.1235687673 3.0803882532 0 -1 0
96 20 1 0.0 26.7548688959 20.666301126 5.7183810188 0 -1 0
97 19 1 0.0 27.1679428901 24.2186331512 3.1492103784 0 -1 0
98 49 1 0.0 29.9753255724 19.7912975843 5.6040729479 0 0 0
99 19 1 0.0 2.3923278949 25.0781249221 5.8073866692 1 -1 0
100 19 1 0.0 2.5701036966 27.6783586261 3.191918531 1 -1 0
101 38 1 0.0 5.3422280264 26.9576918327 5.172419675 1 -1 0
102 37 1 0.0 5.6291545163 29.5995488357 3.2287980116 1 -1 0
103 1 1 0.0 4.1670202172 24.7258324647 3.1272707652 0 -1 0
104 37 1 0.0 7.2898395962 24.9331210953 3.0121956404 1 -1 0
105 1 1 0.0 8.2800949345 27.9433206714 3.141925471 0 -1 0
106 38 1 0.0 11.0448237087 29.5822620473 3.2542355858 1 -1 0
107 38 1 0.0 10.4830729311 25.5917645471 2.9831816352 1 -1 0
108 1 1 0.0 12.6434934521 27.9470890127 5.4696965145 0 -1 0
109 1 1 0.0 13.6171362312 26.531810114 2.8654436535 0 -1 0
110 2 1 0.0 15.703194516 24.0421692554 3.1286589551 0 -1 0
111 1 1 0.0 17.0343829428 26.8891180743 3.1680505196 0 -1 0
112 3 1 0.0 16.115753519 27.4379993293 6.5860544024 0 -1 0
113 20 1 0.0 21.0500987979 26.699891031 3.0738954364 0 -1 0
114 19 1 0.0 20.8001238571 28.8772717485 5.594739136 0 -1 0
115 1 1 0.0 17.943200385 27.937392315 3.6801019263 0 -1 0
116 1 1 0.0 17.7886319519 24.6762698252 5.814821185 0 -1 0
117 2 1 0.0 22.6755683813 25.9169951114 5.8874341429 0 -1 0
118 19 1 0.0 23.6795914168 28.8050270246 3.3672656333 0 -1 0
119 1 1 0.0 19.394821296 25.7307114396 5.9340645974 0 -1 0
120 19 1 0.0 25.9957707314 0.8029021168 3.2822973733 0 0 0
121 20 1 0.0 0.5279503661 24.9963345863 3.0150799396 1 -1 0
122 37 1 0.0 29.5551389087 29.2977261332 3.1500282732 0 -1 0
123 37 1 0.0 28.729683293 26.1419396129 5.5240912523 0 -1 0
124 19 1 0.0 26.9239944651 27.5704026398 3.0205951537 0 -1 0
125 19 1 0.0 27.0282083096 29.0574740842 5.8091140147 0 -1 0
126 25 1 0.0 5.2819996442 6.2918277724 6.6835678793 1 0 0
127 43 1 0.0 1.1050260519 6.8069654186 8.1896770906 1 0 0
128 26 1 0.0 2.7690880166 4.1017332486 7.1802977451 1 0 0
129 38 1 0.0 4.9356634209 1.2746555674 9.0774584014 1 0 0
130 44 1 0.0 6.6934982838 4.1620514838 9.7674821523 1 0 0
131 45 1 0.0 2.1955846375 2.5317299671 11.8983769382 1 0 0
132 45 1 0.0 3.3834757164 5.435811329 10.3888340613 1 0 0
133 8 1 0.0 8.4258356887 5.7869287078 6.3693392992 0 0 0
134 9 1 0.0 7.9796856326 2.0726133259 12.1719183629 0 0 0
135 2 1 0.0 8.387632905 1.8580217596 8.085230004 0 0 0
136 9 1 0.0 9.4796908493 4.8224171542 11.676237836 0 0 0
137 2 1 0.0 11.4422844922 2.0782821932 9.496336047 0 0 0
138 27 1 0.0 11.4820176156 2.2001640134 12.916722963 0 0 0
139 9 1 0.0 13.4692024552 4.3281601296 10.9884255041 0 0 0
140 25 1 0.0 13.8728149271 3.5534730969 7.7741354946 1 0 0
141 27 1 0.0 16.1119416763 5.7677981358 9.1866833865 0 0 0
142 2 1 0.0 15.8659537488 0.9414364009 6.7075653943 0 0 0
143 8 1 0.0 16.6527158189 4.2899032069 6.1415950348 0 0 0
144 8 1 0.0 16.5272724925 2.503852252 9.4904383861 0 0 0
145 9 1 0.0 14.5411473481 1.5784990815 12.0046462335 0 0 0
146 7 1 0.0 19.0031375107 1.8734438355 5.985063655 0 0 0
147 27 1 0.0 19.7527841543 2.9126166492 8.9551531358 0 0 0
148 7 1 0.0 19.2356768963 6.0158781201 8.2716283856 0 0 0
149 8 1 0.0 20.1775763468 3.5836709223 12.2046814831 0 0 0
150 27 1 0.0 23.0872787985 1.7427930305 11.655442547 0 0 0
151 8 1 0.0 22.0241159659 5.202003911 9.9012230925 0 0 0
152 44 1 0.0 29.4547281994 4.4404608639 6.1494947134 0 0 0
153 26 1 0.0 27.9445225175 5.86541905 8.8783982516 0 0 0
154 26 1 0.0 25.1313304854 2.7655825932 8.9612376179 0 0 0
155 45 1 0.0 28.426044892 2.3691150721 11.0026381609 0 0 0
156 43 1 0.0 4.1841512607 8.3388289842 8.8763311064 1 0 0
157 32 1 0.0 1.2530961501 9.840395246 9.7077966596 1 0 0
158 50 1 0.0 3.0526599939 12.8800479898 9.3040911732 1 0 0
159 25 1 0.0 3.0594974577 10.4228747948 6.5468376504 1 0 0
160 32 1 0.0 4.7524537679 10.6505643963 11.155404999 1 0 0
161 32 1 0.0 6.4793397434 13.5886046396 9.5017256416 1 0 0
162 44 1 0.0 7.0497073737 10.2118322841 8.7249030576 1 0 0
163 44 1 0.0 6.3466185313 7.5747288519 11.2295389659 1 0 0
164 8 1 0.0 9.3059876807 7.6038288165 9.3699951059 0 0 0
165 50 1 0.0 10.2876504863 10.8159388905 8.9184676806 1 0 0
166 44 1 0.0 12.0010229184 6.2147611714 8.3580336691 1 0 0
167 44 1 0.0 11.7722569454 7.0384392834 11.4900359198 1 0 0
168 15 1 0.0 9.5024918648 8.831082735 12.9522431068 0 0 0
169 8 1 0.0 13.2708173382 9.2000095321 9.0192546347 0 0 0
170 44 1 0.0 15.8224718253 11.1205728392 10.8105992932 1 0 0
171 44 1 0.0 17.2335694137 8.8104111657 8.9404223632 1 0 0
172 27 1 0.0 14.9358408831 7.2015222398 11.8566418836 0 0 0
173 44 1 0.0 12.8147516046 10.280944022 12.3040172963 1 0 0
174 8 1 0.0 18.0012349329 8.5697500471 12.0905529447 0 0 0
175 8 1 0.0 20.708425821 8.6041003121 9.7641312543 0 0 0
176 14 1 0.0 21.5451496335 11.7916085293 8.9680664645 0 0 0
177 43 1 0.0 22.185968356 7.0250862807 7.0528180123 1 0 0
178 27 1 0.0 23.8393638633 9.0353996733 11.2755084076 0 0 0
179 7 1 0.0 29.7686029456 10.542810622 6.3321090624 0 0 0
180 45 1 0.0 0.0248164678 7.1698820277 11.3512170675 1 0 0
181 26 1 0.0 28.5840700735 7.5288837633 5.9405261495 0 0 0
182 7 1 0.0 27.2937550724 9.6693605033 9.0960477166 0 0 0
183 7 1 0.0 24.839625461 6.6668701441 9.0398437937 0 0 0
184 25 1 0.0 24.1590453944 9.9586810927 7.9362126233 0 0 0
185 31 1 0.0 3.7982293016 16.1097788316 8.1466575804 1 0 0
186 49 1 0.0 0.6798248499 15.5130897898 8.6715533706 1 0 0
187 50 1 0.0 4.4827607053 15.5665953199 11.3518876033 1 0 0
188 32 1 0.0 5.5592327221 14.1757580257 5.9682532122 1 0 0
189 50 1 0.0 6.7764644858 17.7792460381 9.1743853553 1 0 0
190 57 1 0.0 9.1688892921 12.3102407455 11.7036924676 0 -1 0
191 14 1 0.0 9.4647387326 14.072564073 7.8331413288 0 0 0
192 14 1 0.0 9.9655417636 17.3312203515 8.3667432075 0 0 0
193 57 1 0.0 10.7115763472 15.032567414 10.577280872 0 -1 0
194 13 1 0.0 12.4947657838 15.3039814023 7.4717776808 0 0 0
195 57 1 0.0 7.6061422998 16.8490379082 12.3116181332 0 -1 0
196 50 1 0.0 18.2173107897 11.8740288428 8.428759158 1 0 0
197 14 1 0.0 14.9220572032 11.5559273599 7.1110656059 0 0 0
198 50 1 0.0 13.2689334548 12.826067065 9.7404420438 1 0 0
199 59 1 0.0 13.9139239603 15.9302757023 10.4191535221 0 -1 0
200 50 1 0.0 15.6079275502 15.658668352 7.0965633157 1 0 0
201 14 1 0.0 16.5097170448 14.1945021397 9.8165897087 0 0 0
202 59 1 0.0 17.5235024559 16.3208352078 11.9792720497 0 -1 0
203 59 1 0.0 19.9868842239 14.6615339644 9.3432099483 0 -1 0
204 14 1 0.0 18.2482219178 17.2975742772 8.4157615582 0 0 0
205 59 1 0.0 18.3050773311 12.9637760451 12.300636962 0 -1 0
206 25 1 0.0 23.4488508343 12.755231599 6.3490986451 0 0 0
207 49 1 0.0 24.4402887425 17.2091634831 8.4548382544 0 0 0
208 14 1 0.0 23.2977946146 14.32015107 10.2375330166 0 0 0
209 32 1 0.0 29.3619128569 12.5300712885 9.0797451496 0 0 0
210 49 1 0.0 0.2515520852 18.653563913 8.7793935253 1 0 0
211 31 1 0.0 26.2784222898 13.9736133559 8.4057791943 0 0 0
212 31 1 0.0 27.4582389871 17.6240146648 7.0656719168 0 0 0
213 49 1 0.0 26.2594257771 16.2509828056 11.2745147298 0 0 0
214 49 1 0.0 1.5825736784 21.9203142574 7.726594124 1 0 0
215 49 1 0.0 3.8506137253 19.4272418999 8.7195017949 1 0 0
216 37 1 0.0 1.0402532653 25.7708423456 8.6473732511 1 -1 0
217 38 1 0.0 4.0453594613 24.2171728312 8.587350039 1 -1 0
218 21 1 0.0 0.7273342663 21.1821819058 10.9961062598 1 -1 0
219 60 1 0.0 3.6047500168 21.0307106039 13.1058221838 0 -1 0
220 39 1 0.0 8.2535907529 20.0352460576 7.0450206331 1 -1 0
221 60 1 0.0 5.9748802207 21.6886943835 10.5327646926 0 -1 0
222 3 1 0.0 8.4962570804 22.9023373454 8.7525583237 0 -1 0
223 60 1 0.0 9.1681995452 19.5595582534 10.7730988478 0 -1 0
224 63 1 0.0 11.4356594243 22.2251953411 10.5294842953 0 -1 0
225 3 1 0.0 8.6928967182 23.4456372912 11.8737898936 0 -1 0
226 59 1 0.0 15.6537403623 18.5925669789 9.8992176958 0 -1 0
227 39 1 0.0 12.4961322433 19.4512732042 8.9496088911 1 -1 0
228 3 1 0.0 11.3886297067 22.1048549377 7.2436128589 0 -1 0
229 3 1 0.0 14.4967689474 22.3419998416 9.1923489814 0 -1 0
230 39 1 0.0 16.2598701493 20.6046902452 7.1079536305 1 -1 0
231 59 1 0.0 13.8234608557 20.641643371 11.9358050265 0 -1 0
232 59 1 0.0 21.2972549337 18.2880158151 9.6814829423 0 -1 0
233 21 1 0.0 19.6705626511 21.316639343 9.2084610464 0 -1 0
234 63 1 0.0 19.4106375106 23.226127903 12.1133152343 0 -1 0
235 13 1 0.0 21.816610346 19.4997752953 6.6467484685 0 0 0
236 20 1 0.0 24.1995009257 21.9485897891 8.2431816694 0 -1 0
237 2 1 0.0 21.5128795832 22.9020562969 6.5928035321 0 -1 0
238 21 1 0.0 27.4386536924 20.6620392736 9.0388265621 0 -1 0
239 20 1 0.0 26.7219094621 23.6035623062 7.1367213563 0 -1 0
240 21 1 0.0 24.412806462 19.2637535906 10.9843140988 0 -1 0
241 39 1 0.0 28.8461195699 23.6234703394 9.7286902065 0 -1 0
242 37 1 0.0 1.0712809369 1.8399666139 8.9156042482 1 0 0
243 38 1 0.0 3.9712553216 0.1250792963 6.0583953475 1 0 0
244 38 1 0.0 6.368171173 25.162635171 10.482985198 1 -1 0
245 20 1 0.0 1.0245495068 28.1733929278 6.262980964 1 -1 0
246 37 1 0.0 2.5984816438 28.8345349064 9.7408326932 1 -1 0
247 39 1 0.0 5.3058010769 27.4621383737 8.3746875399 1 -1 0
248 2 1 0.0 7.9740639067 28.8383331865 6.2314520952 0 -1 0
249 9 1 0.0 9.7554581858 29.9245743987 11.2519755531 0 -1 0
250 38 1 0.0 8.0581424095 25.8089527718 7.4482100677 1 -1 0
251 38 1 0.0 10.0917817117 28.1374546378 8.5854160992 1 -1 0
252 63 1 0.0 11.2291734834 25.0748745756 9.8462375416 0 -1 0
253 63 1 0.0 9.2928196957 26.6821383979 11.3973789954 0 -1 0
254 2 1 0.0 11.2025399394 25.4942694327 6.6701964296 0 -1 0
255 2 1 0.0 15.8478193662 28.981347935 9.9055256592 0 -1 0
256 1 1 0.0 14.6250249953 24.4121601225 6.4867771655 0 -1 0
257 2 1 0.0 14.3981851461 25.9779252726 9.2697130362 0 -1 0
258 3 1 0.0 12.5998660749 27.6649703804 11.4869218377 0 -1 0
259 3 1 0.0 13.177815908 29.2889725426 8.3775669261 0 -1 0
260 63 1 0.0 17.0892993986 26.323283887 11.2616156715 0 -1 0
261 3 1 0.0 14.2697571935 24.0038901269 11.8739358875 0 -1 0
262 3 1 0.0 18.7521196597 24.7275157242 9.0083845228 0 -1 0
263 68 1 0.0 18.5596946924 29.549671318 8.372057095 0 -1 0
264 3 1 0.0 21.7519898516 0.3759823058 8.9169105091 0 0 0
265 68 1 0.0 20.9724866004 27.1218439066 8.4682810815 0 -1 0
266 3 1 0.0 20.8706900547 29.4194042214 12.3313713625 0 -1 0
267 21 1 0.0 22.1976355494 24.237953116 9.7589739822 0 -1 0
268 3 1 0.0 20.2668948702 26.2782762525 12.4511096283 0 -1 0
269 68 1 0.0 23.2345042085 27.5476881045 10.8380512093 0 -1 0
270 20 1 0.0 25.8116870316 24.9302868637 10.8011041503 0 -1 0
271 37 1 0.0 28.006449007 1.5729701247 7.6242738185 0 0 0
272 19 1 0.0 24.0759099416 28.4705628687 7.5909168032 0 -1 0
273 20 1 0.0 29.0308991712 28.0838237512 9.7965657714 0 -1 0
274 39 1 0.0 26.1561056144 29.699504989 10.3123686026 0 -1 0
275 39 1 0.0 26.6933668663 26.6640596887 8.140735475 0 -1 0
276 45 1 0.0 3.1706477815 3.6738980813 15.0952702376 1 0 0
277 68 1 0.0 4.8724292806 0.9625206553 13.3347118879 0 0 0
278 66 1 0.0 3.8015911189 1.4428790508 17.4986770193 0 0 0
279 65 1 0.0 6.5585148748 2.7166557942 15.6447687635 0 0 0
280 45 1 0.0 5.6840931132 4.4231487976 12.9426818889 1 0 0
281 66 1 0.0 8.2273878725 4.5913046107 17.7831848186 0 0 0
282 68 1 0.0 10.5152698543 2.5281717296 16.099744102 0 0 0
283 66 1 0.0 8.3307509279 0.4652984411 17.3129959377 0 0 0
284 27 1 0.0 13.2843699887 4.7168541151 14.4025141722 0 0 0
285 65 1 0.0 14.587675726 2.7775962095 16.8345073417 0 0 0
286 9 1 0.0 12.8681399221 0.3939257907 15.4891170894 0 0 0
287 65 1 0.0 16.0212429313 1.3768820741 14.9023919761 0 0 0
288 9 1 0.0 18.0216065213 4.4170480729 16.8009185122 0 0 0
289 15 1 0.0 11.8957601244 6.0327051734 17.5500905965 0 0 0
290 8 1 0.0 16.6965682321 4.6585504389 12.731498081 0 0 0
291 68 1 0.0 18.00060089 0.8251525941 11.7780550351 0 0 0
292 9 1 0.0 19.302195738 1.556804277 14.6650058609 0 0 0
293 27 1 0.0 22.8488585375 2.2693048877 14.9016878427 0 0 0
294 27 1 0.0 20.9019857359 4.4327264238 15.4120560025 0 0 0
295 9 1 0.0 21.0807939737 29.3263584531 15.953722685 0 -1 0
296 33 1 0.0 29.3856258849 4.4260698692 13.4778757696 0 0 0
297 33 1 0.0 26.1853984638 4.8649843178 11.4592755932 0 0 0
298 45 1 0.0 26.312056417 2.4856679714 13.9184982156 0 0 0
299 46 1 0.0 25.5677761188 3.4588960215 17.1450963429 0 0 0
300 45 1 0.0 1.2319506054 5.9519257854 16.6562743688 1 0 0
301 45 1 0.0 5.5245939467 5.8837067798 16.1937196506 1 0 0
302 45 1 0.0 5.2100594383 9.1376828227 16.2733053102 1 0 0
303 51 1 0.0 3.8500904615 12.1109728133 14.18602627 1 0 0
304 51 1 0.0 2.0559709181 9.1139643117 15.4156328303 1 0 0
305 15 1 0.0 9.8774973029 5.8453158685 14.8804906017 0 0 0
306 45 1 0.0 6.7413612699 10.3880621104 13.7831340822 1 0 0
307 56 1 0.0 7.6527557049 10.9667891213 17.2528139664 0 -1 0
308 51 1 0.0 10.0829043701 8.903275876 16.5462995623 1 0 0
309 33 1 0.0 15.4626116753 6.2108428859 16.4588861438 0 0 0
310 15 1 0.0 12.6784487319 7.9527896283 14.4995980227 0 0 0
311 33 1 0.0 15.7647578498 8.766600878 14.5370877455 0 0 0
312 55 1 0.0 17.0459759558 9.3032930803 17.5993242972 0 -1 0
313 15 1 0.0 15.4473936399 11.9477055114 14.4671536045 0 0 0
314 51 1 0.0 13.7846764617 8.7887749571 17.6187494183 1 0 0
315 33 1 0.0 23.2361783396 4.9477576416 13.0987702094 0 0 0
316 33 1 0.0 18.7054227167 10.7887985235 14.8606430958 0 0 0
317 15 1 0.0 18.5348394116 7.1293944769 15.0904981734 0 0 0
318 33 1 0.0 21.9365020021 9.6692838599 16.9019926784 0 0 0
319 27 1 0.0 20.983328375 7.6097958899 13.0113680273 0 0 0
320 15 1 0.0 20.2197331605 6.6774301826 17.7693327011 0 0 0
321 33 1 0.0 23.353971946 6.164790483 16.4667037002 0 0 0
322 27 1 0.0 26.7388233549 8.0117643993 12.2855457041 0 0 0
323 45 1 0.0 29.2282718444 7.5519556076 14.6176832187 0 0 0
324 27 1 0.0 26.3051845265 5.8211570052 14.8190558184 0 0 0
325 32 1 0.0 27.604825647 10.4277039477 15.3363285163 0 0 0
326 55 1 0.0 24.1450265429 10.4519469041 14.580847419 0 -1 0
327 28 1 0.0 25.0218958965 8.6902378921 17.5723371608 0 0 0
328 46 1 0.0 27.9452225992 6.7632621149 17.6207277738 0 0 0
329 32 1 0.0 29.513755541 15.1245361322 11.8607199587 0 0 0
330 51 1 0.0 5.3732407602 13.7026086278 16.8022375022 1 0 0
331 32 1 0.0 29.2907335546 13.6499779658 15.3567107446 0 0 0
332 51 1 0.0 3.8524368029 12.4637006151 19.6348059268 1 0 0
333 16 1 0.0 3.8330605156 16.9644922767 15.9559071744 0 0 0
334 60 1 0.0 9.7790426715 18.0729779199 14.3263207587 0 -1 0
335 15 1 0.0 9.8658278628 11.8954817221 14.8720015377 0 0 0
336 62 1 0.0 7.2024423433 16.6134989021 15.5591874664 0 -1 0
337 57 1 0.0 6.872833781 13.6156996906 12.9424585823 0 -1 0
338 61 1 0.0 6.8540349721 16.2442136007 18.9514836874 0 -1 0
339 56 1 0.0 8.7975988762 14.0297426499 17.2441522673 0 -1 0
340 59 1 0.0 11.4109178946 15.0941630556 15.0679898387 0 -1 0
341 62 1 0.0 9.8486745542 17.0742159671 17.4544811177 0 -1 0
342 59 1 0.0 12.2811875249 13.4941782282 12.8456644504 0 -1 0
343 55 1 0.0 12.8337915436 11.4272527297 16.1444137507 0 -1 0
344 55 1 0.0 11.8344180831 14.5368051916 18.2093236737 0 -1 0
345 57 1 0.0 11.8664105753 17.8402674419 11.9349957357 0 -1 0
346 57 1 0.0 14.8683976641 15.2197497549 13.5510123936 0 -1 0
347 62 1 0.0 13.9640521514 16.5447244089 16.326809523 0 -1 0
348 56 1 0.0 17.3563806455 15.0361207154 15.7431901729 0 -1 0
349 57 1 0.0 14.8251452659 13.7505756902 17.6033243733 0 -1 0
350 15 1 0.0 17.7714296435 12.4231320938 17.6282239419 0 0 0
351 56 1 0.0 21.0138097892 12.7700447638 15.961939846 0 -1 0
352 55 1 0.0 21.6662108237 11.9622250236 12.4638591703 0 -1 0
353 55 1 0.0 20.1257179383 15.1288415564 13.891260195 0 -1 0
354 34 1 0.0 22.7163657915 16.621384462 12.5704467322 0 0 0
355 55 1 0.0 20.2671340174 15.4768235743 17.6604015216 0 -1 0
356 21 1 0.0 24.4292940069 19.2502202584 14.3870931358 0 -1 0
357 34 1 0.0 24.8514492796 13.6284934404 13.3334576261 0 0 0
358 34 1 0.0 25.8658519309 13.3897486973 16.7093871701 0 0 0
359 62 1 0.0 23.0985543742 15.4511136513 15.6315778178 0 -1 0
360 87 1 0.0 26.4238961288 16.5218239169 15.0538253655 0 0 0
361 83 1 0.0 28.166365085 15.8753741298 17.7636430769 0 0 0
362 62 1 0.0 24.1659973361 17.6988955375 17.5298158976 0 -1 0
363 16 1 0.0 29.9565032897 18.3185396814 16.0912870715 -1 0 0
364 21 1 0.0 0.1928002526 21.0812477253 14.1086880009 1 -1 0
365 16 1 0.0 0.0420574556 21.3850036055 18.1367191565 0 0 0
366 58 1 0.0 2.266465563 23.1925193822 15.5874370769 0 -1 0
367 52 1 0.0 2.6871484218 20.0581638717 16.410597499 1 0 0
368 64 1 0.0 5.3836367574 21.6751132257 15.919894212 0 -1 0
369 63 1 0.0 10.5370407186 21.2974750636 13.3698913255 0 -1 0
370 16 1 0.0 7.0884849089 19.3806431738 17.6525875447 0 0 0
371 62 1 0.0 6.8632702681 19.870332951 13.4671015581 0 -1 0
372 58 1 0.0 7.1287775587 23.3871650178 17.9866726242 0 -1 0
373 62 1 0.0 8.2197758469 22.8788527953 15.0380066272 0 -1 0
374 60 1 0.0 9.8968557914 20.2720108893 16.3660776638 0 -1 0
375 21 1 0.0 17.0557828061 21.10401327 11.8115854788 0 -1 0
376 59 1 0.0 12.6642531137 19.2597814159 15.0614713927 0 -1 0
377 61 1 0.0 12.8622172976 21.1522985078 18.0787336153 0 -1 0
378 60 1 0.0 12.707371346 22.798057483 15.2083944264 0 -1 0
379 60 1 0.0 15.8484095115 19.1394871693 16.7810783902 0 -1 0
380 62 1 0.0 15.5470458514 18.4696675962 13.6049274344 0 -1 0
381 60 1 0.0 15.0724228687 21.7644663264 14.7127201471 0 -1 0
382 59 1 0.0 18.6245482555 17.9566877273 14.2568297688 0 -1 0
383 59 1 0.0 20.4950403171 20.0173069084 12.6140128531 0 -1 0
384 34 1 0.0 21.4769868978 18.7505637755 15.4984100138 0 0 0
385 62 1 0.0 18.2955225291 21.2896840186 14.8805927929 0 -1 0
386 63 1 0.0 21.1879317965 23.1827600738 15.0424116128 0 -1 0
387 61 1 0.0 18.8807889889 18.6551797425 17.532681565 0 -1 0
388 62 1 0.0 21.447072202 21.0867588605 17.6373515948 0 -1 0
389 39 1 0.0 1.6634752775 24.1522803313 12.439554221 1 -1 0
390 21 1 0.0 27.1528641565 21.3098516804 14.4947658985 0 -1 0
391 21 1 0.0 24.3245526444 22.4585269083 15.8289372576 0 -1 0
392 52 1 0.0 27.2202574156 23.2323354587 17.5413494713 0 0 0
393 87 1 0.0 27.0886166077 19.5755392798 17.3838097672 0 0 0
394 21 1 0.0 23.4849948307 25.1852406554 13.2432744343 0 -1 0
395 38 1 0.0 6.6206826381 28.8766033493 11.1557701747 1 -1 0
396 58 1 0.0 0.7299500203 24.9074312095 17.832441813 0 -1 0
397 52 1 0.0 3.8504696457 23.9685133958 18.3731676839 1 0 0
398 39 1 0.0 4.0214448218 26.9045607371 12.1411145094 1 -1 0
399 64 1 0.0 5.0886183746 25.0650157124 15.5434628218 0 -1 0
400 68 1 0.0 4.5965529503 28.4938441249 16.0628341953 0 -1 0
401 52 1 0.0 1.366531684 27.4574760032 15.5395277742 1 0 0
402 58 1 0.0 3.0786451154 27.4259669259 19.0871556704 0 -1 0
403 58 1 0.0 6.4583673237 26.5594550095 18.4746636427 0 -1 0
404 65 1 0.0 7.6364034335 29.4511438334 14.2914832635 0 -1 0
405 63 1 0.0 10.4138169809 24.3653471159 16.7767818609 0 -1 0
406 64 1 0.0 7.2148134557 26.2957167372 13.7487342407 0 -1 0
407 64 1 0.0 11.1147585116 25.1102978797 13.6462358486 0 -1 0
408 65 1 0.0 9.1900726229 27.4368163931 16.7303408943 0 -1 0
409 68 1 0.0 10.7330539647 28.5097831397 13.9779243681 0 -1 0
410 64 1 0.0 13.4413741924 24.5060619619 17.7163627291 0 -1 0
411 21 1 0.0 17.2282503344 24.4177568519 14.2535901504 0 -1 0
412 63 1 0.0 14.9961577204 28.6674496939 13.5124414806 0 -1 0
413 63 1 0.0 12.507925727 27.5081716429 16.6959427801 0 -1 0
414 68 1 0.0 14.1456194493 25.8078101929 14.462751589 0 -1 0
415 65 1 0.0 16.1952032385 27.0000254855 16.5110117844 0 -1 0
416 64 1 0.0 14.4052441326 0.0542353459 18.8872001382 0 0 0
417 63 1 0.0 23.1429386441 26.2626202592 16.3215988297 0 -1 0
418 60 1 0.0 18.6255159721 23.3498710818 17.3347171143 0 -1 0
419 64 1 0.0 17.8053189465 29.7603039234 16.8873379877 0 -1 0
420 68 1 0.0 18.0916983831 28.1533383488 14.106751136 0 -1 0
421 64 1 0.0 19.7662370835 26.2501728533 16.1785641311 0 -1 0
422 64 1 0.0 21.5943621816 24.2437666217 18.7477924785 0 -1 0
423 65 1 0.0 21.9494338109 27.8332494239 18.8792829203 0 -1 0
424 63 1 0.0 23.7885664794 28.8653689777 13.9162877223 0 -1 0
425 52 1 0.0 29.115223754 24.3911746789 14.8978599066 0 0 0
426 40 1 0.0 27.7303111809 0.435577724 17.4933659638 0 0 0
427 65 1 0.0 5.9563787067 2.9345928495 19.5791995942 0 0 0
428 52 1 0.0 0.8411359563 29.9104069175 18.6499068955 1 0 0
429 66 1 0.0 4.4254587115 4.0349954116 22.7171047801 0 0 0
430 46 1 0.0 1.1132320078 3.5885011874 19.1651079356 1 0 0
431 40 1 0.0 2.7078903778 1.7549386299 24.5777485155 1 0 0
432 66 1 0.0 3.0810994244 1.3074880665 20.8349303888 0 0 0
433 46 1 0.0 0.9780472053 7.5319786991 23.2051060585 1 0 0
434 40 1 0.0 5.7409964322 0.8434118265 22.7161456611 1 0 0
435 67 1 0.0 9.7291241976 5.2812186595 20.7627387999 0 0 0
436 66 1 0.0 6.4790190063 6.0337904604 21.1563137276 0 0 0
437 67 1 0.0 7.9598092995 3.4038442548 22.6798213008 0 0 0
438 68 1 0.0 9.1392005241 2.1296518892 19.8681066604 0 0 0
439 9 1 0.0 12.2968492839 2.8232621432 18.965954444 0 0 0
440 66 1 0.0 9.2935662218 0.3274129468 22.93332262 0 0 0
441 66 1 0.0 11.8671189689 3.3230975368 22.2236222465 0 0 0
442 9 1 0.0 14.7621008213 4.8316952078 19.415530786 0 0 0
443 72 1 0.0 15.0030273885 4.4524133619 24.2268029534 0 0 0
444 66 1 0.0 14.9590718304 2.2694713708 21.4278396538 0 0 0
445 69 1 0.0 17.2398839899 2.1140573 19.044675845 0 0 0
446 69 1 0.0 17.5731934404 4.1829676194 22.4057959755 0 0 0
447 67 1 0.0 14.60132473 1.2347856171 24.4804036486 0 0 0
448 9 1 0.0 23.3467599558 0.875451289 18.0098953335 0 0 0
449 72 1 0.0 19.8491875983 3.6891359054 20.1785370726 0 0 0
450 72 1 0.0 19.7253854842 29.9685920533 22.1437380877 0 -1 0
451 72 1 0.0 21.6642453588 5.2091621143 21.8921752084 0 0 0
452 69 1 0.0 22.4700953197 1.7719151788 21.388577273 0 0 0
453 72 1 0.0 21.6339861602 3.5832792019 24.3370925477 0 0 0
454 46 1 0.0 22.8001221898 4.0725555031 18.8793926756 0 0 0
455 65 1 0.0 20.1887041795 0.6113354482 19.0662308808 0 0 0
456 33 1 0.0 28.799067268 3.6351915354 16.6410520435 0 0 0
457 46 1 0.0 29.7638245357 2.2843559106 22.4697245565 0 0 0
458 75 1 0.0 23.984141582 1.3792131359 24.4122693308 0 0 0
459 46 1 0.0 25.4637299248 3.3210905315 22.1971297456 0 0 0
460 40 1 0.0 27.7111442462 2.6864745272 19.9545126551 0 0 0
461 28 1 0.0 28.0197092948 6.3092312906 22.2064247001 0 0 0
462 46 1 0.0 24.6192819478 6.6359594219 22.7050045821 0 0 0
463 74 1 0.0 27.9369914233 4.0556882124 24.5648484825 0 0 0
464 40 1 0.0 27.1715119579 0.7957781486 23.7846456056 0 0 0
465 56 1 0.0 5.6212985567 9.6853765415 20.0605080982 0 -1 0
466 46 1 0.0 0.3629824451 7.0948650555 19.8964125844 1 0 0
467 56 1 0.0 5.2473224827 11.6944494934 22.7408254035 0 -1 0
468 51 1 0.0 3.7722943645 7.2855374488 18.6104515202 1 0 0
469 28 1 0.0 29.5250753788 9.9922200994 21.5747274903 0 0 0
470 15 1 0.0 10.7255421538 11.508576269 18.6450041524 0 0 0
471 67 1 0.0 7.2774646653 6.7426334552 24.7324475322 0 0 0
472 51 1 0.0 8.1162520389 7.7476791667 18.974580656 1 0 0
473 55 1 0.0 8.761827188 10.2768635637 20.948803888 0 -1 0
474 67 1 0.0 9.6304317065 7.5032415464 22.5442457179 0 0 0
475 15 1 0.0 11.4949254163 8.1040544413 19.9066427934 0 0 0
476 51 1 0.0 9.8589905141 10.5415934852 24.0462317375 1 0 0
477 51 1 0.0 12.5658488259 8.0045905516 23.7995517991 1 0 0
478 55 1 0.0 12.1529187842 10.9463604892 21.5591282385 0 -1 0
479 33 1 0.0 15.0358766692 11.3619358033 19.7461121051 0 0 0
480 33 1 0.0 17.4150299444 9.9896868069 21.1398225573 0 0 0
481 28 1 0.0 14.8939710674 10.3804975964 23.2562970864 0 0 0
482 28 1 0.0 16.7450691764 7.1597189382 23.6382497567 0 0 0
483 51 1 0.0 14.7250509131 7.8437348868 20.9378457183 1 0 0
484 33 1 0.0 17.5650304848 6.4756706223 19.7201382845 0 0 0
485 10 1 0.0 19.4633955511 7.5676522388 22.2690603502 0 0 0
486 55 1 0.0 20.3940811137 12.0426454592 19.2923347836 0 -1 0
487 15 1 0.0 19.9148839816 8.9625149188 19.3864336878 0 0 0
488 28 1 0.0 21.3846802453 7.027369319 24.7529565534 0 0 0
489 46 1 0.0 22.9305574974 7.6599217476 19.9921435483 0 0 0
490 10 1 0.0 20.5035855974 11.1014153201 22.614323158 0 0 0
491 34 1 0.0 17.6532172831 12.4901907495 23.8410896455 0 0 0